ID,Name,InChI,InChIKey,SMILES,Solubility,SD,Occurrences,Group
B-2356,"3-pyridinecarboxamide, n-cyclohexyl-","InChI=1S/C12H16N2O/c15-12(10-5-4-8-13-9-10)14-11-6-2-1-3-7-11/h4-5,8-9,11H,1-3,6-7H2,(H,14,15)",VQRIASKDLZXYTO-UHFFFAOYSA-N,O=C(NC1CCCCC1)c2cccnc2,-2.319,0.0,1,G1
B-2357,3-hydroxycamphor,"InChI=1S/C10H16O2/c1-9(2)6-4-5-10(9,3)8(12)7(6)11/h6-7,11H,4-5H2,1-3H3",AXMKZEOEXSKFJI-UHFFFAOYSA-N,CC1(C)C2CCC1(C)C(=O)C2O,-0.9249,0.0,1,G1
B-2359,"3-octyloxy-propane-1,2-diol","InChI=1S/C11H24O3/c1-2-3-4-5-6-7-8-14-10-11(13)9-12/h11-13H,2-10H2,1H3",GUPXYSSGJWIURR-UHFFFAOYSA-N,CCCCCCCCOCC(O)CO,-1.9208,0.0,1,G1