ID,Name,InChI,InChIKey,SMILES,Solubility,SD,Occurrences,Group
D-1479,4-methylbenzaldehyde,"InChI=1S/C8H8O/c1-7-2-4-8(6-9)5-3-7/h2-6H,1H3",FXLOVSHXALFLKQ-UHFFFAOYSA-N,Cc1ccc(C=O)cc1,-1.724,0.0,1,G1
D-1480,"2-propenoic acid, 3-(1h-imidazol-4-yl)-","InChI=1S/C6H6N2O2/c9-6(10)2-1-5-3-7-4-8-5/h1-4H,(H,7,8)(H,9,10)/b2-1+",LOIYMIARKYCTBW-OWOJBTEDSA-N,OC(=O)/C=C/c1[nH]cnc1,-1.964,0.0,1,G1
D-1482,"butanoic acid, 3-oxo-, methyl ester","InChI=1S/C5H8O3/c1-4(6)3-5(7)8-2/h3H2,1-2H3",WRQNANDWMGAFTP-UHFFFAOYSA-N,COC(=O)CC(C)=O,0.634,0.0,1,G1
D-1483,sec-butyl acetate,"InChI=1S/C6H12O2/c1-4-5(2)8-6(3)7/h5H,4H2,1-3H3",DCKVNWZUADLDEH-UHFFFAOYSA-N,CCC(C)OC(C)=O,-1.273,0.0,1,G1
D-1485,ethyl cyanoacetate,"InChI=1S/C5H7NO2/c1-2-8-5(7)3-4-6/h2-3H2,1H3",ZIUSEGSNTOUIPT-UHFFFAOYSA-N,CCOC(=O)CC#N,-0.753,0.0,1,G1
D-1486,propyl butyrate,"InChI=1S/C7H14O2/c1-3-5-7(8)9-6-4-2/h3-6H2,1-2H3",HUAZGNHGCJGYNP-UHFFFAOYSA-N,CCCOC(=O)CCC,-1.905,0.07684761255599,3,G5
D-1492,"oxirane, ethyl-","InChI=1S/C4H8O/c1-2-4-3-5-4/h4H,2-3H2,1H3",RBACIKXCRWGCBB-UHFFFAOYSA-N,CCC1CO1,-0.086,0.10285,2,G3
D-1493,"oxirane,  (2-propenyloxy)methyl -","InChI=1S/C6H10O2/c1-2-3-7-4-6-5-8-6/h2,6H,1,3-5H2",LSWYGACWGAICNM-UHFFFAOYSA-N,C=CCOCC1CO1,0.092,0.0,1,G1
D-1494,1-butyne,"InChI=1S/C4H6/c1-3-4-2/h1H,4H2,2H3",KDKYADYSIPSCCQ-UHFFFAOYSA-N,CCC#C,-1.275,0.01749999999999996,2,G3
D-1498,"formic acid, methyl ester","InChI=1S/C2H4O2/c1-4-2-3/h2H,1H3",TZIHFWKZFHZASV-UHFFFAOYSA-N,COC=O,0.7040000000000001,0.062000000000000055,2,G3
D-1500,trichlorourethan,"InChI=1S/C3H4Cl3NO2/c4-3(5,6)1-9-2(7)8/h1H2,(H2,7,8)",QPLJYAKLSCXZSF-UHFFFAOYSA-N,NC(=O)OCC(Cl)(Cl)Cl,-1.284,0.0,1,G1
D-1506,"2-propanamine, n-(1-methylethyl)-","InChI=1S/C6H15N/c1-5(2)7-6(3)4/h5-7H,1-4H3",UAOMVDZJSHZZME-UHFFFAOYSA-N,CC(C)NC(C)C,0.036000000000000004,0.0,1,G1
D-1507,"acetic acid, 1-methylethyl ester","InChI=1S/C5H10O2/c1-4(2)7-5(3)6/h4H,1-3H3",JMMWKPVZQRWMSS-UHFFFAOYSA-N,CC(C)OC(C)=O,-0.519,0.015500000000000014,2,G3
D-1508,acetic anhydride,InChI=1S/C4H6O3/c1-3(5)7-4(2)6/h1-2H3,WFDIJRYMOXRFFG-UHFFFAOYSA-N,CC(=O)OC(C)=O,0.07,0.0,1,G1
D-1509,protoanemonin,"InChI=1S/C5H4O2/c1-4-2-3-5(6)7-4/h2-3H,1H2",RNYZJZKPGHQTJR-UHFFFAOYSA-N,C=C1OC(=O)C=C1,-0.983,0.0,1,G1
D-1510,"1,3-dioxolan-2-one, 4-methyl-","InChI=1S/C4H6O3/c1-3-2-6-4(5)7-3/h3H,2H2,1H3",RUOJZAUFBMNUDX-UHFFFAOYSA-N,CC1COC(=O)O1,0.23399999999999999,0.0,1,G1
D-1512,"butanoic acid, 3-methyl-, ethyl ester","InChI=1S/C7H14O2/c1-4-9-7(8)5-6(2)3/h6H,4-5H2,1-3H3",PPXUHEORWJQRHJ-UHFFFAOYSA-N,CCOC(=O)CC(C)C,-1.652,0.08074999999999999,2,G3
D-1513,"4-heptanol, 2,6-dimethyl-","InChI=1S/C9H20O/c1-7(2)5-9(10)6-8(3)4/h7-10H,5-6H2,1-4H3",HXQPUEQDBSPXTE-UHFFFAOYSA-N,CC(C)CC(O)CC(C)C,-2.1590000000000003,0.17589999999999995,2,G3
D-1515,"2-pentanol, 4-methyl-, acetate","InChI=1S/C8H16O2/c1-6(2)5-7(3)10-8(4)9/h6-7H,5H2,1-4H3",CPIVYSAVIPTCCX-UHFFFAOYSA-N,CC(C)CC(C)OC(C)=O,-2.045,0.0,1,G1
D-1518,"butanoic acid, butyl ester","InChI=1S/C8H16O2/c1-3-5-7-10-8(9)6-4-2/h3-7H2,1-2H3",XUPYJHCZDLZNFP-UHFFFAOYSA-N,CCCCOC(=O)CCC,-2.46,0.0,1,G1
D-1519,"thiourea, 2-propenyl-","InChI=1S/C4H8N2S/c1-2-3-6-4(5)7/h2H,1,3H2,(H3,5,6,7)",HTKFORQRBXIQHD-UHFFFAOYSA-N,NC(=S)NCC=C,-0.294,0.0,1,G1
D-1522,2-pentene,"InChI=1S/C5H10/c1-3-5-4-2/h3,5H,4H2,1-2H3/b5-3-",QMMOXUPEWRXHJS-HYXAFXHYSA-N,CC\C=C/C,-2.5380000000000003,0.0,1,G1
D-1523,divinyl ether,"InChI=1S/C4H6O/c1-3-5-4-2/h3-4H,1-2H2",QYKIQEUNHZKYBP-UHFFFAOYSA-N,C=COC=C,-1.261,0.15064999999999995,2,G3
D-1524,"peroxide, bis(1,1-dimethylethyl)-","InChI=1S/C8H18O2/c1-7(2,3)9-10-8(4,5)6/h1-6H3",LSXWFXONGKSEMY-UHFFFAOYSA-N,CC(C)(C)OOC(C)(C)C,-3.165,0.0,1,G1
D-1528,"decanedioic acid, diethyl ester","InChI=1S/C14H26O4/c1-3-17-13(15)11-9-7-5-6-8-10-12-14(16)18-4-2/h3-12H2,1-2H3",ONKUXPIBXRRIDU-UHFFFAOYSA-N,CCOC(=O)CCCCCCCCC(=O)OCC,-3.51,0.0,1,G1
D-1532,heptanoic acid,"InChI=1S/C7H14O2/c1-2-3-4-5-6-7(8)9/h2-6H2,1H3,(H,8,9)",MNWFXJYAOYHMED-UHFFFAOYSA-N,CCCCCCC(O)=O,-1.6640000000000001,0.0,1,G1
D-1533,"ethanol, 2-ethoxy-, acetate","InChI=1S/C6H12O3/c1-3-8-4-5-9-6(2)7/h3-5H2,1-2H3",SVONRAPFKPVNKG-UHFFFAOYSA-N,CCOCCOC(C)=O,0.272,0.0,1,G1
D-1534,"propanoic acid, 3,3'-thiobis-","InChI=1S/C6H10O4S/c7-5(8)1-3-11-4-2-6(9)10/h1-4H2,(H,7,8)(H,9,10)",ODJQKYXPKWQWNK-UHFFFAOYSA-N,OC(=O)CCSCCC(O)=O,-0.68,0.0,1,G1
D-1536,"butane, 1-(ethenyloxy)-","InChI=1S/C6H12O/c1-3-5-6-7-4-2/h4H,2-3,5-6H2,1H3",UZKWTJUDCOPSNM-UHFFFAOYSA-N,CCCCOC=C,-1.524,0.0,1,G1
D-1537,"1,2-ethanediol, diacetate","InChI=1S/C6H10O4/c1-5(7)9-3-4-10-6(2)8/h3-4H2,1-2H3",JTXMVXSTHSMVQF-UHFFFAOYSA-N,CC(=O)OCCOC(C)=O,0.086,0.0,1,G1
D-1538,heptanal,"InChI=1S/C7H14O/c1-2-3-4-5-6-7-8/h7H,2-6H2,1H3",FXHGMKSSBGDXIY-UHFFFAOYSA-N,CCCCCCC=O,-1.9609999999999999,0.13049999999999995,2,G3
D-1539,nonane,"InChI=1S/C9H20/c1-3-5-7-9-8-6-4-2/h3-9H2,1-2H3",BKIMMITUMNQMOS-UHFFFAOYSA-N,CCCCCCCCC,-5.766,0.05699999999999994,2,G3
D-1540,"1,2-ethanediamine, n,n'-bis(2-aminoethyl)-","InChI=1S/C6H18N4/c7-1-3-9-5-6-10-4-2-8/h9-10H,1-8H2",VILCJCGEZXAXTO-UHFFFAOYSA-N,NCCNCCNCCN,0.835,0.33930000000000005,2,G3
D-1541,"1,2-bis(2-chloroethoxy)ethane",InChI=1S/C6H12Cl2O2/c7-1-3-9-5-6-10-4-2-8/h1-6H2,AGYUOJIYYGGHKV-UHFFFAOYSA-N,ClCCOCCOCCCl,-0.996,0.0,1,G1
D-1542,"1,2-ethanediamine, n-(2-aminoethyl)-n'- 2-","InChI=1S/C8H23N5/c9-1-3-11-5-7-13-8-6-12-4-2-10/h11-13H,1-10H2",FAGUFWYHJQFNRV-UHFFFAOYSA-N,NCCNCCNCCNCCN,0.723,0.40755,2,G3
D-1545,sulfonal,"InChI=1S/C7H16O4S2/c1-5-12(8,9)7(3,4)13(10,11)6-2/h5-6H2,1-4H3",CESKLHVYGRFMFP-UHFFFAOYSA-N,CC[S](=O)(=O)C(C)(C)[S](=O)(=O)CC,-1.9269999999999998,0.0,1,G1
D-1546,octafluorocyclobutane,"InChI=1S/C4F8/c5-1(6)2(7,8)4(11,12)3(1,9)10",BCCOBQSFUDVTJQ-UHFFFAOYSA-N,FC1(F)C(F)(F)C(F)(F)C1(F)F,-3.638,0.14480000000000004,2,G3
D-1547,thebaine,"InChI=1S/C19H21NO3/c1-20-9-8-19-12-5-7-15(22-3)18(19)23-17-14(21-2)6-4-11(16(17)19)10-13(12)20/h4-7,13,18H,8-10H2,1-3H3/t13-,18+,19+/m1/s1",FQXXSQDCDRQNQE-VMDGZTHMSA-N,COC1=CC=C2[C@H]3Cc4ccc(OC)c5O[C@@H]1[C@]2(CCN3C)c45,-2.661,0.0,1,G1
D-1548,diphenyl methyl phosphate,"InChI=1S/C13H13O4P/c1-15-18(14,16-12-8-4-2-5-9-12)17-13-10-6-3-7-11-13/h2-11H,1H3",VOWPVJACXJNHBC-UHFFFAOYSA-N,CO[P](=O)(Oc1ccccc1)Oc2ccccc2,-2.121,0.0,1,G1
D-1552,"benzene, 1-methoxy-2,4-dinitro-","InChI=1S/C7H6N2O5/c1-14-7-3-2-5(8(10)11)4-6(7)9(12)13/h2-4H,1H3",CVYZVNVPQRKDLW-UHFFFAOYSA-N,COc1ccc(cc1[N+]([O-])=O)[N+]([O-])=O,-3.1069999999999998,0.0,1,G1
D-1554,"naphthalene, 1,2,3,4-tetrahydro-","InChI=1S/C10H12/c1-2-6-10-8-4-3-7-9(10)5-1/h1-2,5-6H,3-4,7-8H2",CXWXQJXEFPUFDZ-UHFFFAOYSA-N,C1CCc2ccccc2C1,-3.452,0.4590000000000001,2,G3
D-1557,"phenol, 4-chloro-2-(phenylmethyl)-","InChI=1S/C13H11ClO/c14-12-6-7-13(15)11(9-12)8-10-4-2-1-3-5-10/h1-7,9,15H,8H2",NCKMMSIFQUPKCK-UHFFFAOYSA-N,Oc1ccc(Cl)cc1Cc2ccccc2,-3.167,0.0,1,G1
D-1559,"oxirane, (phenoxymethyl)-","InChI=1S/C9H10O2/c1-2-4-8(5-3-1)10-6-9-7-11-9/h1-5,9H,6-7H2",FQYUMYWMJTYZTK-UHFFFAOYSA-N,C1OC1COc2ccccc2,-1.796,0.0,1,G1
D-1560,"heptane, 3-(chloromethyl)-","InChI=1S/C8H17Cl/c1-3-5-6-8(4-2)7-9/h8H,3-7H2,1-2H3",WLVCBAMXYMWGLJ-UHFFFAOYSA-N,CCCCC(CC)CCl,-3.1719999999999997,0.0,1,G1
D-1562,"butanoic acid, 4,4'-dioxybis 4-oxo-","InChI=1S/C8H10O8/c9-5(10)1-3-7(13)15-16-8(14)4-2-6(11)12/h1-4H2,(H,9,10)(H,11,12)",MKTOIPPVFPJEQO-UHFFFAOYSA-N,OC(=O)CCC(=O)OOC(=O)CCC(O)=O,-0.847,0.0,1,G1
D-1567,"1-butanol, 3-methyl-, acetate","InChI=1S/C7H14O2/c1-6(2)4-5-9-7(3)8/h6H,4-5H2,1-3H3",MLFHJEHSLIIPHL-UHFFFAOYSA-N,CC(C)CCOC(C)=O,-1.814,0.052999999999999936,2,G3
D-1568,"1,6-hexanediamine",InChI=1S/C6H16N2/c7-5-3-1-2-4-6-8/h1-8H2,NAQMVNRVTILPCV-UHFFFAOYSA-N,NCCCCCCN,0.935,0.0,1,G1
D-1573,"2-bromo-1,1,1,2-tetrafluoroethane","InChI=1S/C2HBrF4/c3-1(4)2(5,6)7/h1H",RZXZIZDRFQFCTA-UHFFFAOYSA-N,FC(Br)C(F)(F)F,-1.901,0.0,1,G1
D-1574,usnic acid,"InChI=1S/C18H16O7/c1-6-14(22)12(8(3)20)16-13(15(6)23)18(4)10(25-16)5-9(21)11(7(2)19)17(18)24/h5,11,22-23H,1-4H3",CUCUKLJLRRAKFN-UHFFFAOYSA-N,CC(=O)C1C(=O)C=C2Oc3c(C(C)=O)c(O)c(C)c(O)c3C2(C)C1=O,-3.537,0.0,1,G1
D-1575,"1,3-propanediol, 2-(hydroxymethyl)-2-nitro-","InChI=1S/C4H9NO5/c6-1-4(2-7,3-8)5(9)10/h6-8H,1-3H2",OLQJQHSAWMFDJE-UHFFFAOYSA-N,OCC(CO)(CO)[N+]([O-])=O,0.821,0.17105000000000004,2,G3
D-1576,"cyclohexanol, 1-ethynyl-, carbamate","InChI=1S/C9H13NO2/c1-2-9(12-8(10)11)6-4-3-5-7-9/h1H,3-7H2,(H2,10,11)",GXRZIMHKGDIBEW-UHFFFAOYSA-N,NC(=O)OC1(CCCCC1)C#C,-1.825,0.0,1,G1
D-1577,demeton-s,"InChI=1S/C8H19O3PS2/c1-4-10-12(9,11-5-2)14-8-7-13-6-3/h4-8H2,1-3H3",GRPRVIYRYGLIJU-UHFFFAOYSA-N,CCO[P](=O)(OCC)SCCSCC,-2.1109999999999998,0.0,1,G1
D-1578,oxanamide,"InChI=1S/C8H15NO2/c1-3-5-6-8(4-2,11-6)7(9)10/h6H,3-5H2,1-2H3,(H2,9,10)",WBLPIVIXQOFTPQ-UHFFFAOYSA-N,CCCC1OC1(CC)C(N)=O,-1.175,0.0,1,G1
D-1579,noscapine,"InChI=1S/C22H23NO7/c1-23-8-7-11-9-14-20(29-10-28-14)21(27-4)15(11)17(23)18-12-5-6-13(25-2)19(26-3)16(12)22(24)30-18/h5-6,9,17-18H,7-8,10H2,1-4H3/t17-,18+/m1/s1",AKNNEGZIBPJZJG-MSOLQXFVSA-N,COc1ccc2[C@H](OC(=O)c2c1OC)[C@@H]3N(C)CCc4cc5OCOc5c(OC)c34,-3.139,0.0,1,G1
D-1581,narceine,"InChI=1S/C23H27NO8/c1-24(2)9-8-13-10-18-22(32-12-31-18)20(29-4)15(13)11-16(25)14-6-7-17(28-3)21(30-5)19(14)23(26)27/h6-7,10H,8-9,11-12H2,1-5H3,(H,26,27)",DEXMFYZAHXMZNM-UHFFFAOYSA-N,COc1ccc(C(=O)Cc2c(CCN(C)C)cc3OCOc3c2OC)c(C(O)=O)c1OC,-2.535,0.0,1,G1
D-1586,"phenol, 2,4-dichloro-3,5-dimethyl-","InChI=1S/C8H8Cl2O/c1-4-3-6(11)8(10)5(2)7(4)9/h3,11H,1-2H3",IYOLBFFHPZOQGW-UHFFFAOYSA-N,Cc1cc(O)c(Cl)c(C)c1Cl,-2.98,0.0,1,G1
D-1588,4-amino-4'-chlorodiphenyl,"InChI=1S/C12H10ClN/c13-11-5-1-9(2-6-11)10-3-7-12(14)8-4-10/h1-8H,14H2",OREQWMWYRYXCDF-UHFFFAOYSA-N,Nc1ccc(cc1)c2ccc(Cl)cc2,-4.638999999999999,0.0,1,G1
D-1589,"benzenamine, 2-ethoxy-5-nitro-","InChI=1S/C8H10N2O3/c1-2-13-8-4-3-6(10(11)12)5-7(8)9/h3-5H,2,9H2,1H3",AMMPGYPPRLWMLW-UHFFFAOYSA-N,CCOc1ccc(cc1N)[N+]([O-])=O,-3.2110000000000003,0.0,1,G1
D-1591,"propanoic acid, 2-hydroxy-, butyl ester","InChI=1S/C7H14O3/c1-3-4-5-10-7(9)6(2)8/h6,8H,3-5H2,1-2H3",MRABAEUHTLLEML-UHFFFAOYSA-N,CCCCOC(=O)C(C)O,-0.563,0.0,1,G1
D-1593,"cyclohexene, 1-methyl-4-(1-methylethenyl)-","InChI=1S/C10H16/c1-8(2)10-6-4-9(3)5-7-10/h4,10H,1,5-7H2,2-3H3",XMGQYMWWDOXHJM-UHFFFAOYSA-N,CC(=C)C1CCC(=CC1)C,-4.194,0.10878545654431744,3,G5
D-1595,nithiazide,"InChI=1S/C6H8N4O3S/c1-2-7-5(11)9-6-8-3-4(14-6)10(12)13/h3H,2H2,1H3,(H2,7,8,9,11)",FQSUTLQHSDLLAN-UHFFFAOYSA-N,CCNC(=O)Nc1sc(cn1)[N+]([O-])=O,-2.858,0.0,1,G1
D-1597,"hexanedioic acid, diethyl ester","InChI=1S/C10H18O4/c1-3-13-9(11)7-5-6-8-10(12)14-4-2/h3-8H2,1-2H3",VIZORQUEIQEFRT-UHFFFAOYSA-N,CCOC(=O)CCCCC(=O)OCC,-1.68,0.0,1,G1
D-1599,"3-penten-2-one, 4-methyl-","InChI=1S/C6H10O/c1-5(2)4-6(3)7/h4H,1-3H3",SHOJXDKTYKFBRD-UHFFFAOYSA-N,CC(C)=CC(C)=O,-0.531,0.0,1,G1
D-1600,propanedioic acid,"InChI=1S/C3H4O4/c4-2(5)1-3(6)7/h1H2,(H,4,5)(H,6,7)",OFOBLEOULBTSOW-UHFFFAOYSA-N,OC(=O)CC(O)=O,0.865,0.15249999999999997,2,G3
D-1603,pregnenolone,"InChI=1S/C21H32O2/c1-13(22)17-6-7-18-16-5-4-14-12-15(23)8-10-20(14,2)19(16)9-11-21(17,18)3/h4,15-19,23H,5-12H2,1-3H3/t15-,16-,17+,18-,19-,20-,21+/m0/s1",ORNBQBCIOKFOEO-QGVNFLHTSA-N,CC(=O)[C@H]1CC[C@H]2[C@@H]3CC=C4C[C@@H](O)CC[C@]4(C)[C@H]3CC[C@]12C,-4.652,0.0,1,G1
D-1604,"butanedioic acid, 2,3-dihydroxy-,  s-(r*,r*) -","InChI=1S/C4H6O6/c5-1(3(7)8)2(6)4(9)10/h1-2,5-6H,(H,7,8)(H,9,10)/t1-,2-/m0/s1",FEWJPZIEWOKRBE-LWMBPPNESA-N,O[C@@H]([C@H](O)C(O)=O)C(O)=O,0.8240000000000001,0.0,1,G1
D-1605,"butanedioic acid, 2,3-dihydroxy-, (r*,s*)-","InChI=1S/C4H6O6/c5-1(3(7)8)2(6)4(9)10/h1-2,5-6H,(H,7,8)(H,9,10)",FEWJPZIEWOKRBE-UHFFFAOYSA-N,OC(C(O)C(O)=O)C(O)=O,0.5720000000000001,0.22070187674779748,5,G5
D-1606,dinitolmide,"InChI=1S/C8H7N3O5/c1-4-6(8(9)12)2-5(10(13)14)3-7(4)11(15)16/h2-3H,1H3,(H2,9,12)",ZEFNOZRLAWVAQF-UHFFFAOYSA-N,Cc1c(cc(cc1[N+]([O-])=O)[N+]([O-])=O)C(N)=O,-2.352,0.0,1,G1
D-1609,fluocortolone,"InChI=1S/C22H29FO4/c1-11-6-14-13-8-16(23)15-7-12(25)4-5-21(15,2)20(13)17(26)9-22(14,3)19(11)18(27)10-24/h4-5,7,11,13-14,16-17,19-20,24,26H,6,8-10H2,1-3H3/t11-,13+,14+,16+,17+,19-,20-,21+,22+/m1/s1",GAKMQHDJQHZUTJ-ULHLPKEOSA-N,C[C@@H]1C[C@H]2[C@@H]3C[C@H](F)C4=CC(=O)C=C[C@]4(C)[C@H]3[C@@H](O)C[C@]2(C)[C@H]1C(=O)CO,-3.113,0.0,1,G1
D-1615,"1,4-diazabicyclo 2.2.2 octane",InChI=1S/C6H12N2/c1-2-8-5-3-7(1)4-6-8/h1-6H2,IMNIMPAHZVJRPE-UHFFFAOYSA-N,C1CN2CCN1CC2,0.603,0.0,1,G1
D-1617,thionazin,"InChI=1S/C8H13N2O3PS/c1-3-11-14(15,12-4-2)13-8-7-9-5-6-10-8/h5-7H,3-4H2,1-2H3",IRVDMKJLOCGUBJ-UHFFFAOYSA-N,CCO[P](=S)(OCC)Oc1cnccn1,-2.338,0.0,1,G1
D-1618,demeton-o,"InChI=1S/C8H19O3PS2/c1-4-9-12(13,10-5-2)11-7-8-14-6-3/h4-8H2,1-3H3",DGLIBALSRMUQDD-UHFFFAOYSA-N,CCO[P](=S)(OCC)OCCSCC,-3.634,0.0,1,G1
D-1620,meparfynol carbamate,"InChI=1S/C7H11NO2/c1-4-7(3,5-2)10-6(8)9/h1H,5H2,2-3H3,(H2,8,9)",GXCDLJXPZVCHBX-UHFFFAOYSA-N,CCC(C)(OC(N)=O)C#C,-0.946,0.0,1,G1
D-1623,1-chloro-2-fluorobenzene,InChI=1S/C6H4ClF/c7-5-3-1-2-4-6(5)8/h1-4H,ZCJAYDKWZAWMPR-UHFFFAOYSA-N,Fc1ccccc1Cl,-2.416,0.0,1,G1
D-1625,"1,2-difluorobenzene",InChI=1S/C6H4F2/c7-5-3-1-2-4-6(5)8/h1-4H,GOYDNIKZWGIXJT-UHFFFAOYSA-N,Fc1ccccc1F,-2.0,0.4998,2,G3
D-1626,andrenosterone,"InChI=1S/C19H24O3/c1-18-8-7-12(20)9-11(18)3-4-13-14-5-6-16(22)19(14,2)10-15(21)17(13)18/h9,13-14,17H,3-8,10H2,1-2H3/t13-,14-,17+,18-,19-/m0/s1",RZRPTBIGEANTGU-IRIMSJTPSA-N,C[C@]12CC(=O)[C@H]3[C@@H](CCC4=CC(=O)CC[C@]34C)[C@@H]1CCC2=O,-3.484,0.0,1,G1
D-1627,"ethene, (2,2,2-trifluoroethoxy)-","InChI=1S/C4H5F3O/c1-2-8-3-4(5,6)7/h2H,1,3H2",DLEGDLSLRSOURQ-UHFFFAOYSA-N,FC(F)(F)COC=C,-1.4780000000000002,0.0,1,G1
D-1629,ethisterone,"InChI=1S/C21H28O2/c1-4-21(23)12-9-18-16-6-5-14-13-15(22)7-10-19(14,2)17(16)8-11-20(18,21)3/h1,13,16-18,23H,5-12H2,2-3H3/t16-,17+,18+,19+,20+,21+/m1/s1",CHNXZKVNWQUJIB-CEGNMAFCSA-N,C[C@]12CCC(=O)C=C1CC[C@@H]3[C@@H]2CC[C@@]4(C)[C@H]3CC[C@@]4(O)C#C,-5.6579999999999995,0.0,1,G1
D-1630,lithocholic acid,"InChI=1S/C24H40O3/c1-15(4-9-22(26)27)19-7-8-20-18-6-5-16-14-17(25)10-12-23(16,2)21(18)11-13-24(19,20)3/h15-21,25H,4-14H2,1-3H3,(H,26,27)/t15-,16-,17-,18+,19-,20+,21+,23+,24-/m1/s1",SMEROWZSTRWXGI-HVATVPOCSA-N,C[C@H](CCC(O)=O)[C@H]1CC[C@H]2[C@@H]3CC[C@@H]4C[C@H](O)CC[C@]4(C)[C@H]3CC[C@]12C,-6.0,0.0,1,G1
D-1632,"piperidine, 2-propyl-, (s)-","InChI=1S/C8H17N/c1-2-5-8-6-3-4-7-9-8/h8-9H,2-7H2,1H3/t8-/m0/s1",NDNUANOUGZGEPO-QMMMGPOBSA-N,CCC[C@H]1CCCCN1,-0.8490000000000001,0.0,1,G1
D-1633,d-borneol,"InChI=1S/C10H18O/c1-9(2)7-4-5-10(9,3)8(11)6-7/h7-8,11H,4-6H2,1-3H3/t7?,8-,10?/m0/s1",DTGKSKDOIYIVQL-ZCUBBSJVSA-N,CC1(C)C2CCC1(C)[C@@H](O)C2,-2.319,0.0,1,G1
D-1634,"bicyclo 2.2.1 heptan-2-one, 1,7,7-trimethyl-, (","InChI=1S/C10H16O/c1-9(2)7-4-5-10(9,3)8(11)6-7/h7H,4-6H2,1-3H3/t7-,10-/m0/s1",DSSYKIVIOFKYAU-XVKPBYJWSA-N,CC1(C)[C@H]2CC[C@@]1(C)C(=O)C2,-3.1830000000000003,0.0,1,G1
D-1635,proscillaridin,"InChI=1S/C30H42O8/c1-16-24(32)25(33)26(34)27(37-16)38-19-8-11-28(2)18(14-19)5-6-22-21(28)9-12-29(3)20(10-13-30(22,29)35)17-4-7-23(31)36-15-17/h4,7,14-16,19-22,24-27,32-35H,5-6,8-13H2,1-3H3/t16?,19-,20+,21-,22+,24?,25?,26?,27?,28-,29+,30-/m0/s1",MYEJFUXQJGHEQK-OWBILYANSA-N,CC1OC(O[C@H]2CC[C@]3(C)[C@H]4CC[C@]5(C)[C@H](CC[C@]5(O)[C@@H]4CCC3=C2)C6=COC(=O)C=C6)C(O)C(O)C1O,-3.955,0.0,1,G1
D-1637,thiazolsulfone,"InChI=1S/C9H9N3O2S2/c10-6-1-3-7(4-2-6)16(13,14)8-5-12-9(11)15-8/h1-5H,10H2,(H2,11,12)",KVEZIRCKNOTGKY-UHFFFAOYSA-N,Nc1ccc(cc1)[S](=O)(=O)c2sc(N)nc2,-2.805,0.0,1,G1
D-1638,equilin,"InChI=1S/C18H20O2/c1-18-9-8-14-13-5-3-12(19)10-11(13)2-4-15(14)16(18)6-7-17(18)20/h3-5,10,14,16,19H,2,6-9H2,1H3/t14-,16+,18+/m1/s1",WKRLQDKEXYKHJB-HFTRVMKXSA-N,C[C@]12CC[C@H]3C(=CCc4cc(O)ccc34)[C@@H]1CCC2=O,-5.279,0.0,1,G1
D-1639,picropodophyllin,"InChI=1S/C22H22O8/c1-25-16-4-10(5-17(26-2)21(16)27-3)18-11-6-14-15(30-9-29-14)7-12(11)20(23)13-8-28-22(24)19(13)18/h4-7,13,18-20,23H,8-9H2,1-3H3/t13-,18+,19+,20-/m0/s1",YJGVMLPVUAXIQN-HAEOHBJNSA-N,COc1cc(cc(OC)c1OC)[C@H]2[C@H]3[C@H](COC3=O)[C@@H](O)c4cc5OCOc5cc24,-3.617,0.0,1,G1
D-1641,aucubin,"InChI=1S/C15H22O9/c16-4-6-3-8(18)7-1-2-22-14(10(6)7)24-15-13(21)12(20)11(19)9(5-17)23-15/h1-3,7-21H,4-5H2/t7-,8+,9+,10+,11+,12-,13+,14-,15-/m0/s1",RJWJHRPNHPHBRN-FKVJWERZSA-N,OC[C@H]1O[C@@H](O[C@@H]2OC=C[C@H]3[C@H](O)C=C(CO)[C@@H]23)[C@H](O)[C@@H](O)[C@@H]1O,0.012,0.0,1,G1
D-1643,"2,4,6-trimethylbenzoic acid","InChI=1S/C10H12O2/c1-6-4-7(2)9(10(11)12)8(3)5-6/h4-5H,1-3H3,(H,11,12)",FFFIRKXTFQCCKJ-UHFFFAOYSA-N,Cc1cc(C)c(c(C)c1)C(O)=O,-2.3569999999999998,0.0,1,G1
D-1644,alpha-santonin,"InChI=1S/C15H18O3/c1-8-10-4-6-15(3)7-5-11(16)9(2)12(15)13(10)18-14(8)17/h5,7-8,10,13H,4,6H2,1-3H3/t8-,10-,13-,15-/m0/s1",XJHDMGJURBVLLE-BOCCBSBMSA-N,C[C@H]1[C@@H]2CC[C@@]3(C)C=CC(=O)C(=C3[C@H]2OC1=O)C,-3.09,0.0,1,G1
D-1645,epiandrosterone,"InChI=1S/C19H30O2/c1-18-9-7-13(20)11-12(18)3-4-14-15-5-6-17(21)19(15,2)10-8-16(14)18/h12-16,20H,3-11H2,1-2H3/t12-,13-,14-,15-,16-,18-,19-/m0/s1",QGXBDMJGAMFCBF-LUJOEAJASA-N,C[C@]12CC[C@H](O)C[C@@H]1CC[C@@H]3[C@@H]2CC[C@@]4(C)[C@H]3CCC4=O,-4.158,0.0,1,G1
D-1646,ecgonine,"InChI=1S/C9H15NO3/c1-10-5-2-3-6(10)8(9(12)13)7(11)4-5/h5-8,11H,2-4H2,1H3,(H,12,13)/t5?,6?,7-,8+/m0/s1",PHMBVCPLDPDESM-RLXKETGRSA-N,CN1C2CCC1[C@H]([C@@H](O)C2)C(O)=O,-0.017,0.0,1,G1
D-1648,cytisine,"InChI=1S/C11H14N2O/c14-11-3-1-2-10-9-4-8(5-12-6-9)7-13(10)11/h1-3,8-9,12H,4-7H2/t8-,9-/m0/s1",ANJTVLIZGCUXLD-IUCAKERBSA-N,O=C1C=CC=C2[C@@H]3CNC[C@H](C3)CN12,0.363,0.0,1,G1
D-1652,d-quercitol,"InChI=1S/C6H12O5/c7-2-1-3(8)5(10)6(11)4(2)9/h2-11H,1H2/t2-,3-,4+,5+/m1/s1",IMPKVMRTXBRHRB-MBMOQRBOSA-N,O[C@@H]1C[C@@H](O)[C@H](O)C(O)[C@H]1O,-0.174,0.0,1,G1
D-1655,alpha-d-glucose,"InChI=1S/C6H12O6/c7-1-2-3(8)4(9)5(10)6(11)12-2/h2-11H,1H2/t2-,3-,4+,5-,6+/m1/s1",WQZGKKKJIJFFOK-DVKNGEFBSA-N,OC[C@H]1O[C@H](O)[C@H](O)[C@@H](O)[C@@H]1O,0.44299999999999995,0.0,1,G1
D-1657,salinazid,"InChI=1S/C13H11N3O2/c17-12-4-2-1-3-11(12)9-15-16-13(18)10-5-7-14-8-6-10/h1-9,15H,(H,16,18)/b11-9-",CYKAGXAJJFUETC-LUAWRHEFSA-N,O=C(NN\C=C/1C=CC=CC1=O)c2ccncc2,-3.6830000000000003,0.0,1,G1
D-1659,citraconic acid,"InChI=1S/C5H6O4/c1-3(5(8)9)2-4(6)7/h2H,1H3,(H,6,7)(H,8,9)/b3-2-",HNEGQIOMVPPMNR-IHWYPQMZSA-N,C\C(=C\C(O)=O)C(O)=O,0.779,0.2405,2,G3
D-1660,"2-butenedioic acid, 2-methyl-, (e)-","InChI=1S/C5H6O4/c1-3(5(8)9)2-4(6)7/h2H,1H3,(H,6,7)(H,8,9)/b3-2+",HNEGQIOMVPPMNR-NSCUHMNNSA-N,C\C(=C/C(O)=O)C(O)=O,-0.6940000000000001,0.0,1,G1
D-1664,n-benzyl-3-chloropropanamide,"InChI=1S/C10H12ClNO/c11-7-6-10(13)12-8-9-4-2-1-3-5-9/h1-5H,6-8H2,(H,12,13)",JPYQFYIEOUVJDU-UHFFFAOYSA-N,ClCCC(=O)NCc1ccccc1,-3.2960000000000003,0.0,1,G1
D-1666,methanedisulfonic acid,"InChI=1S/CH4O6S2/c2-8(3,4)1-9(5,6)7/h1H2,(H,2,3,4)(H,5,6,7)",OPUAWDUYWRUIIL-UHFFFAOYSA-N,O[S](=O)(=O)C[S](O)(=O)=O,0.754,0.2009216320415058,3,G5
D-1667,"butanoic acid, 3-methyl-","InChI=1S/C5H10O2/c1-4(2)3-5(6)7/h4H,3H2,1-2H3,(H,6,7)",GWYFCOCPABKNJV-UHFFFAOYSA-N,CC(C)CC(O)=O,-0.4,0.0,1,G1
D-1668,octanedioic acid,"InChI=1S/C8H14O4/c9-7(10)5-3-1-2-4-6-8(11)12/h1-6H2,(H,9,10)(H,11,12)",TYFQFVWCELRYAO-UHFFFAOYSA-N,OC(=O)CCCCCCC(O)=O,-1.169,0.4355,2,G3
D-1670,mustard gas,InChI=1S/C4H8Cl2S/c5-1-3-7-4-2-6/h1-4H2,QKSKPIVNLNLAAV-UHFFFAOYSA-N,ClCCSCCCl,-2.363,0.0,1,G1
D-1671,"2,4-hexadienedioic acid,","InChI=1S/C6H6O4/c7-5(8)3-1-2-4-6(9)10/h1-4H,(H,7,8)(H,9,10)/b3-1-,4-2-",TXXHDPDFNKHHGW-CCAGOZQPSA-N,OC(=O)\C=C/C=C\C(O)=O,-2.852,0.0,1,G1
D-1672,"propane, 2-bromo-2-methyl-","InChI=1S/C4H9Br/c1-4(2,3)5/h1-3H3",RKSOPLXZQNSWAS-UHFFFAOYSA-N,CC(C)(C)Br,-2.359,0.0,1,G1
D-1673,tert-butyl chloride,"InChI=1S/C4H9Cl/c1-4(2,3)5/h1-3H3",NBRKLOOSMBRFMH-UHFFFAOYSA-N,CC(C)(C)Cl,-1.507,0.0,1,G1
D-1675,chlorobenzilate,"InChI=1S/C16H14Cl2O3/c1-2-21-15(19)16(20,11-3-7-13(17)8-4-11)12-5-9-14(18)10-6-12/h3-10,20H,2H2,1H3",RAPBNVDSDCTNRC-UHFFFAOYSA-N,CCOC(=O)C(O)(c1ccc(Cl)cc1)c2ccc(Cl)cc2,-4.512,0.055999999999999606,2,G3
D-1676,diosgenin,"InChI=1S/C27H42O3/c1-16-7-12-27(29-15-16)17(2)24-23(30-27)14-22-20-6-5-18-13-19(28)8-10-25(18,3)21(20)9-11-26(22,24)4/h5,16-17,19-24,28H,6-15H2,1-4H3/t16-,17+,19+,20-,21+,22+,23+,24+,25+,26+,27-/m1/s1",WQLVFSAGQJTQCK-VKROHFNGSA-N,C[C@@H]1CC[C@@]2(OC1)O[C@H]3C[C@H]4[C@@H]5CC=C6C[C@@H](O)CC[C@]6(C)[C@H]5CC[C@]4(C)[C@H]3[C@@H]2C,-7.317,0.0,1,G1
D-1677,"2-butene, 2-methyl-","InChI=1S/C5H10/c1-4-5(2)3/h4H,1-3H3",BKOOMYPCSUNDGP-UHFFFAOYSA-N,CC=C(C)C,-2.56,0.0,1,G1