ID,Name,InChI,InChIKey,SMILES,Solubility,SD,Occurrences,Group
D-114,diethylene glycol dibutyl ether,"InChI=1S/C12H26O3/c1-3-5-7-13-9-11-15-12-10-14-8-6-4-2/h3-12H2,1-2H3",KZVBBTZJMSWGTK-UHFFFAOYSA-N,CCCCOCCOCCOCCCC,-1.8619999999999999,0.18094101154348172,3,G5
D-115,dimethyl ether,InChI=1S/C2H6O/c1-3-2/h1-2H3,LCGLNKUTAGEVQW-UHFFFAOYSA-N,COC,0.884,0.4442219713,2,G3
D-119,di-n-butyl ether,"InChI=1S/C8H18O/c1-3-5-7-9-8-6-4-2/h3-8H2,1-2H3",DURPTKYDGMDSBL-UHFFFAOYSA-N,CCCCOCCCC,-2.638,0.502048363569793,3,G4
D-140,trichlorfon,"InChI=1S/C4H8Cl3O4P/c1-10-12(9,11-2)3(8)4(5,6)7/h3,8H,1-2H3",NFACJZMKEDPNKN-UHFFFAOYSA-N,CO[P](=O)(OC)C(O)C(Cl)(Cl)Cl,-0.331,0.09807140255956372,3,G5
D-193,diuron,"InChI=1S/C9H10Cl2N2O/c1-13(2)9(14)12-6-3-4-7(10)8(11)5-6/h3-5H,1-2H3,(H,12,14)",XMTQQYYKAHVGBJ-UHFFFAOYSA-N,CN(C)C(=O)Nc1ccc(Cl)c(Cl)c1,-3.7439999999999998,1.227136935754724,5,G4
D-200,methyl isothiocyanate,InChI=1S/C2H3NS/c1-3-2-4/h1H3,LGDSHSYDSCRFAB-UHFFFAOYSA-N,CN=C=S,-0.983,0.014614939856125959,3,G5
D-207,eptam (eptc),"InChI=1S/C9H19NOS/c1-4-7-10(8-5-2)9(11)12-6-3/h4-8H2,1-3H3",GUVLYNGULCJVDO-UHFFFAOYSA-N,CCCN(CCC)C(=O)SCC,-2.7030000000000003,0.018823614499999808,2,G3
D-237,molinate,"InChI=1S/C9H17NOS/c1-2-12-9(11)10-7-5-3-4-6-8-10/h2-8H2,1H3",DEDOPGXGGQYYMW-UHFFFAOYSA-N,CCSC(=O)N1CCCCCC1,-2.286,0.04200000000000004,2,G3
D-240,propargite,"InChI=1S/C19H26O4S/c1-5-14-21-24(20)23-18-9-7-6-8-17(18)22-16-12-10-15(11-13-16)19(2,3)4/h1,10-13,17-18H,6-9,14H2,2-4H3",ZYHMJXZULPZUED-UHFFFAOYSA-N,CC(C)(C)c1ccc(OC2CCCCC2O[S](=O)OCC#C)cc1,-5.846,0.1831123901499998,2,G3
D-258,desethylatrazine,"InChI=1S/C6H10ClN5/c1-3(2)9-6-11-4(7)10-5(8)12-6/h3H,1-2H3,(H3,8,9,10,11,12)",DFWFIQKMSFGDCQ-UHFFFAOYSA-N,CC(C)Nc1nc(N)nc(Cl)n1,-2.7060000000000004,0.4680000000000002,2,G3
D-265,terbufos,"InChI=1S/C9H21O2PS3/c1-6-10-12(13,11-7-2)15-8-14-9(3,4)5/h6-8H2,1-5H3",XLNZEKHULJKQBA-UHFFFAOYSA-N,CCO[P](=S)(OCC)SCSC(C)(C)C,-4.755,0.23749999999999982,2,G3
D-289,thiobencarb,"InChI=1S/C12H16ClNOS/c1-3-14(4-2)12(15)16-9-10-5-7-11(13)8-6-10/h5-8H,3-4,9H2,1-2H3",QHTQREMOGMZHJV-UHFFFAOYSA-N,CCN(CC)C(=O)SCc1ccc(Cl)cc1,-3.964,0.016999999999999904,2,G3
D-428,cumene,"InChI=1S/C9H12/c1-8(2)9-6-4-3-5-7-9/h3-8H,1-2H3",RWGFKTVRMDUZSP-UHFFFAOYSA-N,CC(C)c1ccccc1,-3.292,0.047949710900247765,3,G5
D-429,alpha-methylstyrene,"InChI=1S/C9H10/c1-8(2)9-6-4-3-5-7-9/h3-7H,1H2,2H3",XYLMUPLGERFSHI-UHFFFAOYSA-N,CC(=C)c1ccccc1,-3.008,0.3385139050696914,3,G5
D-439,p-xylene,"InChI=1S/C8H10/c1-7-3-5-8(2)6-4-7/h3-6H,1-2H3",URLKBWYHVLBVBO-UHFFFAOYSA-N,Cc1ccc(C)cc1,-2.8160000000000003,0.031636460531335245,5,G5
D-462,2-chlorotoluene,"InChI=1S/C7H7Cl/c1-6-4-2-3-5-7(6)8/h2-5H,1H3",IBSQPLPBRSHTTG-UHFFFAOYSA-N,Cc1ccccc1Cl,-2.53,0.8431685149582588,4,G4
D-485,3-dichlorobenzene,InChI=1S/C6H4Cl2/c7-5-2-1-3-6(8)4-5/h1-4H,ZPQOPVIELGIULI-UHFFFAOYSA-N,Clc1cccc(Cl)c1,-3.07,0.033878302660846474,3,G5
D-507,benzoyl peroxide,InChI=1S/C14H10O4/c15-13(11-7-3-1-4-8-11)17-18-14(16)12-9-5-2-6-10-12/h1-10H,OMPJBNCRMGITSC-UHFFFAOYSA-N,O=C(OOC(=O)c1ccccc1)c2ccccc2,-4.425,0.7075799424000002,2,G2
D-549,dimethylamine,"InChI=1S/C2H7N/c1-3-2/h3H,1-2H3",ROSDSFDQCJNGOL-UHFFFAOYSA-N,CNC,1.558,1.106016037,2,G2
D-560,o-aminophenol,"InChI=1S/C6H7NO/c7-5-3-1-2-4-6(5)8/h1-4,8H,7H2",CDAWCLOXVUBKRW-UHFFFAOYSA-N,Nc1ccccc1O,-0.737,0.03787622981630316,3,G5
D-569,"1,4-benzenediamine","InChI=1S/C6H8N2/c7-5-1-2-6(8)4-3-5/h1-4H,7-8H2",CBCKQZAAMUWICA-UHFFFAOYSA-N,Nc1ccc(N)cc1,-0.466,0.060040184791607304,4,G5
D-576,p-anisaldehyde,"InChI=1S/C8H8O2/c1-10-8-4-2-7(6-9)3-5-8/h2-6H,1H3",ZRSNZINYAWTAHE-UHFFFAOYSA-N,COc1ccc(C=O)cc1,-1.5019999999999998,0.1589330231068858,3,G5
D-578,"2,4-dichloroaniline","InChI=1S/C6H5Cl2N/c7-4-1-2-6(9)5(8)3-4/h1-3H,9H2",KQCMTOWTPBNWDB-UHFFFAOYSA-N,Nc1ccc(Cl)cc1Cl,-2.417,0.0696767168000001,2,G3
D-581,"2,4,6-trichloroaniline","InChI=1S/C6H4Cl3N/c7-3-1-4(8)6(10)5(9)2-3/h1-2H,10H2",NATVSFWWYVJTAZ-UHFFFAOYSA-N,Nc1c(Cl)cc(Cl)cc1Cl,-3.6910000000000003,0.13855676864464972,4,G5
D-592,2-methoxyphenol,"InChI=1S/C7H8O2/c1-9-7-5-3-2-4-6(7)8/h2-5,8H,1H3",LHGVFZTZFXWLCP-UHFFFAOYSA-N,COc1ccccc1O,-0.8220000000000001,0.5603121584995971,3,G4
D-614,"2,4,6-tribromophenol","InChI=1S/C6H3Br3O/c7-3-1-4(8)6(10)5(9)2-3/h1-2,10H",BSWWXRFVMJHFBN-UHFFFAOYSA-N,Oc1c(Br)cc(Br)cc1Br,-3.674,0.5514314381200657,3,G4
D-642,"2,3,6-trimethylphenol","InChI=1S/C9H12O/c1-6-4-5-7(2)9(10)8(6)3/h4-5,10H,1-3H3",QQOMQLYQAXGHSU-UHFFFAOYSA-N,Cc1ccc(C)c(O)c1C,-1.936,0.02293481545000009,2,G3
D-652,trichloroacetic acid,"InChI=1S/C2HCl3O2/c3-2(4,5)1(6)7/h(H,6,7)",YNJBWRMUSHSURL-UHFFFAOYSA-N,OC(=O)C(Cl)(Cl)Cl,0.519,0.5338081362220993,4,G4
D-663,indole-3-acetic acid,"InChI=1S/C10H9NO2/c12-10(13)5-7-6-11-9-4-2-1-3-8(7)9/h1-4,6,11H,5H2,(H,12,13)",SEOVTRFCIGRIMH-UHFFFAOYSA-N,OC(=O)Cc1c[nH]c2ccccc12,-2.0669999999999997,0.013499999999999845,2,G3
D-689,2-ethylhexanoic acid,"InChI=1S/C8H16O2/c1-3-5-6-7(4-2)8(9)10/h7H,3-6H2,1-2H3,(H,9,10)",OBETXYAYXDNJHR-UHFFFAOYSA-N,CCCCC(CC)C(O)=O,-1.858,0.07743969359999991,2,G3
D-767,allyl alcohol,"InChI=1S/C3H6O/c1-2-3-4/h2,4H,1,3H2",XXROGKLTLUQVRX-UHFFFAOYSA-N,OCC=C,1.236,1.1832790760499998,2,G2
D-769,cyclohexanol,"InChI=1S/C6H12O/c7-6-4-2-1-3-5-6/h6-7H,1-5H2",HPXRVTGHNJAIIH-UHFFFAOYSA-N,OC1CCCCC1,-0.377,0.08030729428990128,3,G5
D-771,1-heptanol,"InChI=1S/C7H16O/c1-2-3-4-5-6-7-8/h8H,2-7H2,1H3",BBMCTIGTTCKYKF-UHFFFAOYSA-N,CCCCCCCO,-1.8419999999999999,0.018250166992610832,3,G5
D-779,2-octanol,"InChI=1S/C8H18O/c1-3-4-5-6-7-8(2)9/h8-9H,3-7H2,1-2H3",SJWFXCIHNDVPSH-UHFFFAOYSA-N,CCCCCCC(C)O,-2.065,0.039708082585230016,5,G5
D-799,trichloroacetaldehyde,"InChI=1S/C2HCl3O/c3-2(4,5)1-6/h1H",HFFLGKNGCAIQMO-UHFFFAOYSA-N,ClC(Cl)(Cl)C=O,-0.691,1.2208079833499998,2,G2
D-802,benzaldehyde,InChI=1S/C7H6O/c8-6-7-4-2-1-3-5-7/h1-6H,HUMNYLRZRPPJDN-UHFFFAOYSA-N,O=Cc1ccccc1,-1.208,0.16501026499026442,3,G5
D-804,3-phenyl-2-propenal,InChI=1S/C9H8O/c10-8-4-7-9-5-2-1-3-6-9/h1-8H/b7-4+,KJPRLNWUNMBNBZ-QPJJXVBHSA-N,O=C/C=C/c1ccccc1,-1.969,0.11883462238795704,3,G5
D-823,p-hydroxy butyl benzoate,"InChI=1S/C11H14O3/c1-2-3-8-14-11(13)9-4-6-10(12)7-5-9/h4-7,12H,2-3,8H2,1H3",QFOHBWFCKVYLES-UHFFFAOYSA-N,CCCCOC(=O)c1ccc(O)cc1,-2.972,0.1477734752924217,4,G5
D-826,ethyl methacrylate,"InChI=1S/C6H10O2/c1-4-8-6(7)5(2)3/h2,4H2,1,3H3",SUPCQIBBMFXVTL-UHFFFAOYSA-N,CCOC(=O)C(C)=C,-1.325,0.03064012245000003,2,G3
D-827,"methacrylic acid, i-butyl","InChI=1S/C8H14O2/c1-6(2)5-10-8(9)7(3)4/h6H,3,5H2,1-2,4H3",RUMACXVDVNRZJZ-UHFFFAOYSA-N,CC(C)COC(=O)C(C)=C,-2.039,0.17900931624999994,2,G3
D-850,dimethyl phthalate,"InChI=1S/C10H10O4/c1-13-9(11)7-5-3-4-6-8(7)10(12)14-2/h3-6H,1-2H3",NIQCNGHVCWTJSM-UHFFFAOYSA-N,COC(=O)c1ccccc1C(=O)OC,-1.686,0.13100975366573117,3,G5
D-859,acetoacetic ester,"InChI=1S/C6H10O3/c1-3-9-6(8)4-5(2)7/h3-4H2,1-2H3",XYIBRDXRRQCHLP-UHFFFAOYSA-N,CCOC(=O)CC(C)=O,-0.073,0.036761801,2,G3
D-879,3-pentanone,"InChI=1S/C5H10O/c1-3-5(6)4-2/h3-4H2,1-2H3",FDPIMTJIUBPUKL-UHFFFAOYSA-N,CCC(=O)CC,-0.253,0.01804045178202326,3,G5
D-894,3-methyl-2-butanone,"InChI=1S/C5H10O/c1-4(2)5(3)6/h4H,1-3H3",SYBYTAAJFKOIEJ-UHFFFAOYSA-N,CC(C)C(C)=O,-0.151,0.41754109368433623,3,G5
D-911,benzonitrile,InChI=1S/C7H5N/c8-6-7-4-2-1-3-5-7/h1-5H,JFDZBHWFFUWGJE-UHFFFAOYSA-N,N#Cc1ccccc1,-1.712,1.7484271244231044,3,G4
D-914,butyronitrile,"InChI=1S/C4H7N/c1-2-3-4-5/h2-3H2,1H3",KVNRLNFWIYMESJ-UHFFFAOYSA-N,CCCC#N,-0.321,0.007752032899999983,2,G3
D-950,1-lauryl-2-pyrrolodone,"InChI=1S/C16H31NO/c1-2-3-4-5-6-7-8-9-10-11-14-17-15-12-13-16(17)18/h2-15H2,1H3",NJPQAIBZIHNJDO-UHFFFAOYSA-N,CCCCCCCCCCCCN1CCCC1=O,-4.67,0.48981625975,2,G3
D-1024,theobromine,"InChI=1S/C7H8N4O2/c1-10-3-8-5-4(10)6(12)9-7(13)11(5)2/h3H,1-2H3,(H,9,12,13)",YAPQBXQYLJRXSA-UHFFFAOYSA-N,Cn1cnc2N(C)C(=O)NC(=O)c12,-2.737,0.30124657674403527,4,G5
D-1030,triacetin,"InChI=1S/C9H14O6/c1-6(10)13-4-9(15-8(3)12)5-14-7(2)11/h9H,4-5H2,1-3H3",URAYPUMNDPQOKB-UHFFFAOYSA-N,CC(=O)OCC(COC(C)=O)OC(C)=O,-0.575,0.04534972600979494,3,G5
D-1081,disperse red 9,"InChI=1S/C15H11NO2/c1-16-12-8-4-7-11-13(12)15(18)10-6-3-2-5-9(10)14(11)17/h2-8,16H,1H3",SVTDYSXXLJYUTM-UHFFFAOYSA-N,CNc1cccc2C(=O)c3ccccc3C(=O)c12,-6.3,0.016914090000000215,2,G3
D-1087,c.i. disperse yellow 42,"InChI=1S/C18H15N3O4S/c22-21(23)18-13-16(26(24,25)20-15-9-5-2-6-10-15)11-12-17(18)19-14-7-3-1-4-8-14/h1-13,19-20H",BBFRYSKTTHYWQZ-UHFFFAOYSA-N,[O-][N+](=O)c1cc(ccc1Nc2ccccc2)[S](=O)(=O)Nc3ccccc3,-6.269,1.72944839315,2,G2
D-1093,hydrocortisone acetate,"InChI=1S/C23H32O6/c1-13(24)29-12-19(27)23(28)9-7-17-16-5-4-14-10-15(25)6-8-21(14,2)20(16)18(26)11-22(17,23)3/h10,16-18,20,26,28H,4-9,11-12H2,1-3H3/t16-,17-,18-,20+,21-,22-,23-/m0/s1",ALEXXDVDDISNDU-JZYPGELDSA-N,CC(=O)OCC(=O)[C@@]1(O)CC[C@H]2[C@@H]3CCC4=CC(=O)CC[C@]4(C)[C@H]3[C@@H](O)C[C@]12C,-4.458,0.6491181422000001,2,G2
D-1103,progesterone,"InChI=1S/C21H30O2/c1-13(22)17-6-7-18-16-5-4-14-12-15(23)8-10-20(14,2)19(16)9-11-21(17,18)3/h12,16-19H,4-11H2,1-3H3/t16-,17+,18-,19-,20-,21+/m0/s1",RJKFOVLPORLFTN-LEKSSAKUSA-N,CC(=O)[C@H]1CC[C@H]2[C@@H]3CCC4=CC(=O)CC[C@]4(C)[C@H]3CC[C@]12C,-4.553,0.02243598899999988,2,G3
D-1105,testosterone,"InChI=1S/C19H28O2/c1-18-9-7-13(20)11-12(18)3-4-14-15-5-6-17(21)19(15,2)10-8-16(14)18/h11,14-17,21H,3-10H2,1-2H3/t14-,15-,16-,17-,18-,19-/m0/s1",MUMGGOZAMZWBJJ-DYKIIFRCSA-N,C[C@]12CC[C@H]3[C@@H](CCC4=CC(=O)CC[C@]34C)[C@@H]1CC[C@@H]2O,-4.091,0.49351244655000004,2,G3
D-1106,androstenedione,"InChI=1S/C19H26O2/c1-18-9-7-13(20)11-12(18)3-4-14-15-5-6-17(21)19(15,2)10-8-16(14)18/h11,14-16H,3-10H2,1-2H3/t14-,15-,16-,18-,19-/m0/s1",AEMFNILZOJDQLW-QAGGRKNESA-N,C[C@]12CC[C@H]3[C@@H](CCC4=CC(=O)CC[C@]34C)[C@@H]1CCC2=O,-3.695,0.028774088300000056,2,G3
D-1130,benzoguanamine,"InChI=1S/C9H9N5/c10-8-12-7(13-9(11)14-8)6-4-2-1-3-5-6/h1-5H,(H4,10,11,12,13,14)",GZVHEAJQGPRDLQ-UHFFFAOYSA-N,Nc1nc(N)nc(n1)c2ccccc2,-2.494,0.13658489279999997,2,G3
D-1165,glycerol,"InChI=1S/C3H8O3/c4-1-3(6)2-5/h3-6H,1-2H2",PEDCQBHIVMGVHV-UHFFFAOYSA-N,OCC(O)CO,1.036,0.14637598470423932,3,G5
D-1331,scopolamine,"InChI=1S/C17H21NO4/c1-18-13-7-11(8-14(18)16-15(13)22-16)21-17(20)12(9-19)10-5-3-2-4-6-10/h2-6,11-16,19H,7-9H2,1H3/t11?,12-,13-,14+,15?,16?/m1/s1",STECJAGHUSJQJN-MKXJHAPZSA-N,CN1[C@@H]2CC(C[C@H]1C3OC23)OC(=O)[C@H](CO)c4ccccc4,-0.504,0.2426792820022855,3,G5
D-1336,prasterone,"InChI=1S/C19H28O2/c1-18-9-7-13(20)11-12(18)3-4-14-15-5-6-17(21)19(15,2)10-8-16(14)18/h3,13-16,20H,4-11H2,1-2H3/t13-,14-,15-,16-,18-,19-/m0/s1",FMGSKLZLMKYGDP-USOAJAOKSA-N,C[C@]12CC[C@H]3[C@@H](CC=C4C[C@@H](O)CC[C@]34C)[C@@H]1CCC2=O,-4.122,0.24440990326721784,3,G5
D-1358,norethindrone,"InChI=1S/C20H26O2/c1-3-20(22)11-9-18-17-6-4-13-12-14(21)5-7-15(13)16(17)8-10-19(18,20)2/h1,12,15-18,22H,4-11H2,2H3/t15-,16+,17+,18-,19-,20-/m0/s1",VIKNJXKGJWUCNN-XGXHKTLJSA-N,C[C@]12CC[C@H]3[C@@H](CCC4=CC(=O)CC[C@H]34)[C@@H]1CC[C@@]2(O)C#C,-4.627,0.049824315399999985,2,G3
D-1366,fluoroethene,"InChI=1S/C2H3F/c1-2-3/h2H,1H2",XUCNUKMRBVNAPB-UHFFFAOYSA-N,FC=C,-0.276,0.13829166745,2,G3
D-1410,cyclizine,"InChI=1S/C18H22N2/c1-19-12-14-20(15-13-19)18(16-8-4-2-5-9-16)17-10-6-3-7-11-17/h2-11,18H,12-15H2,1H3",UVKZSORBKUEBAZ-UHFFFAOYSA-N,CN1CCN(CC1)C(c2ccccc2)c3ccccc3,-2.426,0.44800000000000006,2,G3
D-1459,"1,2-benzenediol, 4-(1,1-dimethylethyl)-","InChI=1S/C10H14O2/c1-10(2,3)7-4-5-8(11)9(12)6-7/h4-6,11-12H,1-3H3",XESZUVZBAMCAEJ-UHFFFAOYSA-N,CC(C)(C)c1ccc(O)c(O)c1,-1.92,0.16128300620000002,2,G3
D-1463,"benzene, (dichloromethyl)-","InChI=1S/C7H6Cl2/c8-7(9)6-4-2-1-3-5-6/h1-5,7H",CAHQGWAXKLQREW-UHFFFAOYSA-N,ClC(Cl)c1ccccc1,-2.8089999999999997,0.6743457336000003,2,G2
D-1473,"benzene, 1,1'- oxybis(methylene) bis-","InChI=1S/C14H14O/c1-3-7-13(8-4-1)11-15-12-14-9-5-2-6-10-14/h1-10H,11-12H2",MHDVGSVTJDSBDK-UHFFFAOYSA-N,C(OCc1ccccc1)c2ccccc2,-3.695,0.013581772350000021,2,G3
D-1476,chlorphenesin,"InChI=1S/C9H11ClO3/c10-7-1-3-9(4-2-7)13-6-8(12)5-11/h1-4,8,11-12H,5-6H2",MXOAEAUPQDYUQM-UHFFFAOYSA-N,OCC(O)COc1ccc(Cl)cc1,-1.307,1.3691739837999999,2,G2
D-1479,4-methylbenzaldehyde,"InChI=1S/C8H8O/c1-7-2-4-8(6-9)5-3-7/h2-6H,1H3",FXLOVSHXALFLKQ-UHFFFAOYSA-N,Cc1ccc(C=O)cc1,-1.724,0.47889369055,2,G3
D-1482,"butanoic acid, 3-oxo-, methyl ester","InChI=1S/C5H8O3/c1-4(6)3-5(7)8-2/h3H2,1-2H3",WRQNANDWMGAFTP-UHFFFAOYSA-N,COC(=O)CC(C)=O,0.634,0.15055396664999998,2,G3
D-1487,"heptanoic acid, ethyl ester","InChI=1S/C9H18O2/c1-3-5-6-7-8-9(10)11-4-2/h3-8H2,1-2H3",TVQGDYNRXLTQAP-UHFFFAOYSA-N,CCCCCCC(=O)OCC,-2.737,0.17733101903481066,3,G5
D-1526,"acetic acid, 2-methylpropyl ester","InChI=1S/C6H12O2/c1-5(2)4-8-6(3)7/h5H,4H2,1-3H3",GJRQTCIYDGXPES-UHFFFAOYSA-N,CC(C)COC(C)=O,-1.266,0.043645675177346306,3,G5
D-1605,"butanedioic acid, 2,3-dihydroxy-, (r*,s*)-","InChI=1S/C4H6O6/c5-1(3(7)8)2(6)4(9)10/h1-2,5-6H,(H,7,8)(H,9,10)",FEWJPZIEWOKRBE-UHFFFAOYSA-N,OC(C(O)C(O)=O)C(O)=O,0.5720000000000001,0.6828479511877809,10,G4
D-1629,ethisterone,"InChI=1S/C21H28O2/c1-4-21(23)12-9-18-16-6-5-14-13-15(22)7-10-19(14,2)17(16)8-11-20(18,21)3/h1,13,16-18,23H,5-12H2,2-3H3/t16-,17+,18+,19+,20+,21+/m1/s1",CHNXZKVNWQUJIB-CEGNMAFCSA-N,C[C@]12CCC(=O)C=C1CC[C@@H]3[C@@H]2CC[C@@]4(C)[C@H]3CC[C@@]4(O)C#C,-5.6579999999999995,0.19715246490000027,2,G3
D-1688,"2h-pyran-2,4-(3h)-dione, 3-acetyl-6-methyl-","InChI=1S/C8H8O4/c1-4-3-6(10)7(5(2)9)8(11)12-4/h3,7H,1-2H3",PGRHXDWITVMQBC-UHFFFAOYSA-N,CC(=O)C1C(=O)OC(=CC1=O)C,-1.226,0.6503608508499998,2,G2
D-1693,"1,2,4-benzenetricarboxylic acid","InChI=1S/C9H6O6/c10-7(11)4-1-2-5(8(12)13)6(3-4)9(14)15/h1-3H,(H,10,11)(H,12,13)(H,14,15)",ARCGXLSVLAOJQL-UHFFFAOYSA-N,OC(=O)c1ccc(C(O)=O)c(c1)C(O)=O,-1.0,0.3,2,G3
D-1844,"2-pentene, trans","InChI=1S/C5H10/c1-3-5-4-2/h3,5H,4H2,1-2H3/b5-3+",QMMOXUPEWRXHJS-HWKANZROSA-N,CC\C=C\C,-2.5380000000000003,0.4318852513925909,5,G5
D-1912,7-methyl-1-octanol,"InChI=1S/C9H20O/c1-9(2)7-5-3-4-6-8-10/h9-10H,3-8H2,1-2H3",QDTDKYHPHANITQ-UHFFFAOYSA-N,CC(C)CCCCCCO,-2.487,1.2583234632964804,4,G4
D-1994,"cyclohexanone, 5-methyl-2-(1-methylethyl)-, (2s","InChI=1S/C10H18O/c1-7(2)9-5-4-8(3)6-10(9)11/h7-9H,4-6H2,1-3H3/t8-,9+/m1/s1",NFLGAXVYCFJBMK-BDAKNGLRSA-N,CC(C)[C@@H]1CC[C@@H](C)CC1=O,-2.492,0.10503609487325154,3,G5
B-6,estradiol,"InChI=1S/C18H24O2/c1-18-9-8-14-13-5-3-12(19)10-11(13)2-4-15(14)16(18)6-7-17(18)20/h3,5,10,14-17,19-20H,2,4,6-9H2,1H3/t14-,15-,16+,17+,18+/m1/s1",VOXZDWNPVJITMN-ZBRFXRBCSA-N,C[C@]12CC[C@H]3[C@@H](CCc4cc(O)ccc34)[C@@H]1CC[C@@H]2O,-4.8789,0.19009835590000002,2,G3
B-41,sodium salicylate,"InChI=1S/C7H6O3.Na/c8-6-4-2-1-3-5(6)7(9)10;/h1-4,8H,(H,9,10);/q;+1/p-1",ABBQHOQBGMUPJH-UHFFFAOYSA-M,[Na+].Oc1ccccc1C([O-])=O,-0.1075,0.4524066682074541,4,G5
B-54,glutamine,"InChI=1S/C5H10N2O3/c6-3(5(9)10)1-2-4(7)8/h3H,1-2,6H2,(H2,7,8)(H,9,10)/t3-/m0/s1",ZDXPYRJPNDTMRX-VKHMYHEASA-N,N[C@@H](CCC(N)=O)C(O)=O,-0.5488,0.031537741499999994,2,G3
B-115,"edta, sodium salt","InChI=1S/C10H16N2O8.4Na/c13-7(14)3-11(4-8(15)16)1-2-12(5-9(17)18)6-10(19)20;;;;/h1-6H2,(H,13,14)(H,15,16)(H,17,18)(H,19,20);;;;/q;4*+1/p-4",UEUXEKPTXMALOB-UHFFFAOYSA-J,[Na+].[Na+].[Na+].[Na+].[O-]C(=O)CN(CCN(CC([O-])=O)CC([O-])=O)CC([O-])=O,0.11900000000000001,0.032223933,2,G3
B-162,methane,InChI=1S/CH4/h1H4,VNWKTOKETHGBQD-UHFFFAOYSA-N,C,-2.8629,1.5912749117310752,13,G4
B-163,ethane,InChI=1S/C2H6/c1-2/h1-2H3,OTMSDBZUPAUEDD-UHFFFAOYSA-N,CC,-2.6985,0.5999901207476245,5,G4
B-168,propane,"InChI=1S/C3H8/c1-3-2/h3H2,1-2H3",ATUOYWHBWRKTHZ-UHFFFAOYSA-N,CCC,-2.8492,0.4387008619001448,5,G5
B-224,acetyl tributyl citrate,"InChI=1S/C20H34O8/c1-5-8-11-25-17(22)14-20(28-16(4)21,19(24)27-13-10-7-3)15-18(23)26-12-9-6-2/h5-15H2,1-4H3",QZCLKYGREBVARF-UHFFFAOYSA-N,CCCCOC(=O)CC(CC(=O)OCCCC)(OC(C)=O)C(=O)OCCCC,-4.9058,1.0958997215559276,3,G4
B-226,triethyl citrate,"InChI=1S/C12H20O7/c1-4-17-9(13)7-12(16,11(15)19-6-3)8-10(14)18-5-2/h16H,4-8H2,1-3H3",DOOTYTYQINUNNV-UHFFFAOYSA-N,CCOC(=O)CC(O)(CC(=O)OCC)C(=O)OCC,-0.6285,0.030773281025142145,3,G5
B-230,tri-p-cresyl phosphate,"InChI=1S/C21H21O4P/c1-16-4-10-19(11-5-16)23-26(22,24-20-12-6-17(2)7-13-20)25-21-14-8-18(3)9-15-21/h4-15H,1-3H3",BOSMZFBHAYFUBJ-UHFFFAOYSA-N,Cc1ccc(O[P](=O)(Oc2ccc(C)cc2)Oc3ccc(C)cc3)cc1,-6.0892,0.051017377573363526,3,G5
B-264,"peroxide, bis(1-methyl-1-phenylethyl)","InChI=1S/C18H22O2/c1-17(2,15-11-7-5-8-12-15)19-20-18(3,4)16-13-9-6-10-14-16/h5-14H,1-4H3",XMNIXWIUMCBBBL-UHFFFAOYSA-N,CC(C)(OOC(C)(C)c1ccccc1)c2ccccc2,-5.7692,0.014646629000000022,2,G3
B-316,"2,6-dimethylaniline","InChI=1S/C8H11N/c1-6-4-3-5-7(2)8(6)9/h3-5H,9H2,1-2H3",UFFBMTHBGFGIHF-UHFFFAOYSA-N,Cc1cccc(C)c1N,-1.1675,0.09900082630000001,2,G3
B-335,4-chloro-2-nitroaniline,"InChI=1S/C6H5ClN2O2/c7-4-1-2-5(8)6(3-4)9(10)11/h1-3H,8H2",PBGKNXWGYQPUJK-UHFFFAOYSA-N,Nc1ccc(Cl)cc1[N+]([O-])=O,-2.5380000000000003,0.3583482913499998,2,G3
B-337,"d-glycero-d-gulo-heptonic acid, .gamma.-lactone","InChI=1S/C7H12O7/c8-1-2(9)3(10)6-4(11)5(12)7(13)14-6/h2-6,8-12H,1H2",VIVCRCODGMFTFY-UHFFFAOYSA-N,OCC(O)C(O)C1OC(=O)C(O)C1O,0.3348,0.027600000000000013,2,G3
B-407,"pentanoic acid, 2-methyl-","InChI=1S/C6H12O2/c1-3-4-5(2)6(7)8/h5H,3-4H2,1-2H3,(H,7,8)",OVBFMEVBMNZIBR-UHFFFAOYSA-N,CCCC(C)C(O)=O,-0.889,0.04484838634999999,2,G3
B-416,"benzenesulfonic acid, 3-amino-4-methoxy-","InChI=1S/C7H9NO4S/c1-12-7-3-2-5(4-6(7)8)13(9,10)11/h2-4H,8H2,1H3,(H,9,10,11)",FLIOATBXVNLPLK-UHFFFAOYSA-N,COc1ccc(cc1N)[S](O)(=O)=O,-0.8997,0.5430225075999999,2,G2
B-419,alpha-terpineol,"InChI=1S/C10H18O/c1-8-4-6-9(7-5-8)10(2,3)11/h4,9,11H,5-7H2,1-3H3/t9-/m0/s1",WUOACPNHFRMFPN-VIFPVBQESA-N,CC1=CC[C@@H](CC1)C(C)(C)O,-2.3369999999999997,1.5334189336652433,4,G4
B-422,alpha-methylbenzyl alcohol,"InChI=1S/C8H10O/c1-7(9)8-5-3-2-4-6-8/h2-7,9H,1H3",WAPNOHKVXSQRPX-UHFFFAOYSA-N,CC(O)c1ccccc1,-1.7969,0.49608089690194723,3,G5
B-445,4-ethylmorpholine,"InChI=1S/C6H13NO/c1-2-7-3-5-8-6-4-7/h2-6H2,1H3",HVCNXQOWACZAFN-UHFFFAOYSA-N,CCN1CCOCC1,0.9386,0.25925968155,2,G3
B-471,p-toluenesulfonic acid,"InChI=1S/C7H8O3S/c1-6-2-4-7(5-3-6)11(8,9)10/h2-5H,1H3,(H,8,9,10)",JOXIMZWYDAKGHI-UHFFFAOYSA-N,Cc1ccc(cc1)[S](O)(=O)=O,0.5564,0.13488002585000003,2,G3
B-504,3-octanone,"InChI=1S/C8H16O/c1-3-5-6-7-8(9)4-2/h3-7H2,1-2H3",RHLVCLIPMVJYKS-UHFFFAOYSA-N,CCCCCC(=O)CC,-1.693,0.3020172779999999,2,G3
B-506,"decanedioic acid, dimethyl ester","InChI=1S/C12H22O4/c1-15-11(13)9-7-5-3-4-6-8-10-12(14)16-2/h3-10H2,1-2H3",ALOUNLDAKADEEB-UHFFFAOYSA-N,COC(=O)CCCCCCCCC(=O)OC,-3.2831,0.19968250729999992,2,G3
B-517,"1,2-diaminoethane",InChI=1S/C2H8N2/c3-1-2-4/h1-4H2,PIICEJLVQHRZGT-UHFFFAOYSA-N,NCCN,1.2211,1.00660136885,2,G2
B-531,di-n-butyl phosphate,"InChI=1S/C8H19O4P/c1-3-5-7-11-13(9,10)12-8-6-4-2/h3-8H2,1-2H3,(H,9,10)",JYFHYPJRHGVZDY-UHFFFAOYSA-N,CCCCO[P](O)(=O)OCCCC,-1.0874,0.010009566449999951,2,G3
B-554,ethyl isovalerate,"InChI=1S/C7H14O2/c1-4-9-7(8)5-6(2)3/h6H,4-5H2,1-3H3",PPXUHEORWJQRHJ-UHFFFAOYSA-N,CCOC(=O)CC(C)C,-1.8135,0.0920636582943411,3,G5
B-558,cyanuric acid,"InChI=1S/C3H3N3O3/c7-1-4-2(8)6-3(9)5-1/h(H3,4,5,6,7,8,9)",ZFSLODLOARCGLH-UHFFFAOYSA-N,O=C1NC(=O)NC(=O)N1,-1.8098,0.22380950272415712,3,G5
B-572,dibutyl sebacate,"InChI=1S/C18H34O4/c1-3-5-15-21-17(19)13-11-9-7-8-10-12-14-18(20)22-16-6-4-2/h3-16H2,1-2H3",PYGXAGIECVVIOZ-UHFFFAOYSA-N,CCCCOC(=O)CCCCCCCCC(=O)OCCCC,-3.8955,1.443236982058069,3,G4
B-575,isobutyl vinyl ether,"InChI=1S/C6H12O/c1-4-7-5-6(2)3/h4,6H,1,5H2,2-3H3",OZCMOJQQLBXBKI-UHFFFAOYSA-N,CC(C)COC=C,-1.5236,0.3098830776999999,2,G3
B-603,"1,4-butanediol","InChI=1S/C4H10O2/c5-3-1-2-4-6/h5-6H,1-4H2",WERYXYBDKMZEQL-UHFFFAOYSA-N,OCCCCO,1.0452,0.50001541055,2,G2
B-638,bis(2-chloroethoxy)methane,InChI=1S/C5H10Cl2O2/c6-1-3-8-5-9-4-2-7/h1-5H2,NLXGURFLBLRZRO-UHFFFAOYSA-N,ClCCOCOCCCl,-1.3461,0.023987079200000094,2,G3
B-653,docosanoic acid,"InChI=1S/C22H44O2/c1-2-3-4-5-6-7-8-9-10-11-12-13-14-15-16-17-18-19-20-21-22(23)24/h2-21H2,1H3,(H,23,24)",UKMSUNONTOPOIO-UHFFFAOYSA-N,CCCCCCCCCCCCCCCCCCCCCC(O)=O,-7.3281,1.74741778075,2,G2
B-669,tri-2-chloroethyl phosphate,"InChI=1S/C6H12Cl3O4P/c7-1-4-11-14(10,12-5-2-8)13-6-3-9/h1-6H2",HQUQLFOMPYWACS-UHFFFAOYSA-N,ClCCO[P](=O)(OCCCl)OCCCl,-1.6105,0.027446070350000018,2,G3
B-690,4-chloro-1-nitro-2(trifluoromethyl)benzene,"InChI=1S/C7H3ClF3NO2/c8-4-1-2-6(12(13)14)5(3-4)7(9,10)11/h1-3H",CFPIGEXZPWTNOR-UHFFFAOYSA-N,[O-][N+](=O)c1ccc(Cl)cc1C(F)(F)F,-3.3533,0.1126803369499998,2,G3