ID,Name,InChI,InChIKey,SMILES,Solubility,SD,Occurrences,Group
D-1680,"3,11-dihydroxy-androstan-17-one","InChI=1S/C19H30O3/c1-18-8-7-12(20)9-11(18)3-4-13-14-5-6-16(22)19(14,2)10-15(21)17(13)18/h11-15,17,20-21H,3-10H2,1-2H3/t11?,12-,13?,14?,15?,17?,18?,19?/m0/s1",PIXFHVWJOVNKQK-HJJNUGAVSA-N,CC12CC[C@H](O)CC1CCC3C4CCC(=O)C4(C)CC(O)C23,-3.593,0.0,1,G1
D-1685,"2(3h)-furanone, 3-acetyldihydro-","InChI=1S/C6H8O3/c1-4(7)5-2-3-9-6(5)8/h5H,2-3H2,1H3",OMQHDIHZSDEIFH-UHFFFAOYSA-N,CC(=O)C1CCOC1=O,0.193,0.0,1,G1
D-1686,beta-peltatin,"InChI=1S/C22H22O8/c1-25-14-5-10(6-15(26-2)20(14)27-3)17-12-7-16-21(30-9-29-16)19(23)13(12)4-11-8-28-22(24)18(11)17/h5-7,11,17-18,23H,4,8-9H2,1-3H3/t11-,17+,18-/m0/s1",HLBPOYVRLSXWJJ-PDSMFRHLSA-N,COc1cc(cc(OC)c1OC)[C@H]2[C@@H]3[C@H](COC3=O)Cc4c(O)c5OCOc5cc24,-4.503,0.0,1,G1
D-1687,"2,4,6,3'4'-penta-hydroxy-benzophenol","InChI=1S/C13H10O6/c14-7-4-10(17)12(11(18)5-7)13(19)6-1-2-8(15)9(16)3-6/h1-5,14-18H",XNWPXDGRBWJIES-UHFFFAOYSA-N,Oc1cc(O)c(c(O)c1)C(=O)c2ccc(O)c(O)c2,-1.72,0.0,1,G1
D-1688,"2h-pyran-2,4-(3h)-dione, 3-acetyl-6-methyl-","InChI=1S/C8H8O4/c1-4-3-6(10)7(5(2)9)8(11)12-4/h3,7H,1-2H3",PGRHXDWITVMQBC-UHFFFAOYSA-N,CC(=O)C1C(=O)OC(=CC1=O)C,-1.226,0.0,1,G1
D-1689,ricinine,"InChI=1S/C8H8N2O2/c1-10-4-3-7(12-2)6(5-9)8(10)11/h3-4H,1-2H3",PETSAYFQSGAEQY-UHFFFAOYSA-N,COC1=C(C#N)C(=O)N(C)C=C1,-1.784,0.0,1,G1
D-1691,(+)-perseitol,"InChI=1S/C7H16O7/c8-1-3(10)5(12)7(14)6(13)4(11)2-9/h3-14H,1-2H2/t3-,4+,5-,6-,7?/m1/s1",OXQKEKGBFMQTML-RYRJNEICSA-N,OC[C@H](O)[C@@H](O)C(O)[C@H](O)[C@H](O)CO,-0.517,0.0,1,G1
D-1692,"ethanone, 1-(2,3,4-trihydroxyphenyl)-","InChI=1S/C8H8O4/c1-4(9)5-2-3-6(10)8(12)7(5)11/h2-3,10-12H,1H3",XIROXSOOOAZHLL-UHFFFAOYSA-N,CC(=O)c1ccc(O)c(O)c1O,-2.022,0.0,1,G1
D-1693,"1,2,4-benzenetricarboxylic acid","InChI=1S/C9H6O6/c10-7(11)4-1-2-5(8(12)13)6(3-4)9(14)15/h1-3H,(H,10,11)(H,12,13)(H,14,15)",ARCGXLSVLAOJQL-UHFFFAOYSA-N,OC(=O)c1ccc(C(O)=O)c(c1)C(O)=O,-1.0,0.0,1,G1
D-1695,apronalide,"InChI=1S/C9H16N2O2/c1-4-5-7(6(2)3)8(12)11-9(10)13/h4,6-7H,1,5H2,2-3H3,(H3,10,11,12,13)",KSUUMAWCGDNLFK-UHFFFAOYSA-N,CC(C)C(CC=C)C(=O)NC(N)=O,-2.747,0.0,1,G1
D-1697,picein,"InChI=1S/C14H18O7/c1-7(16)8-2-4-9(5-3-8)20-14-13(19)12(18)11(17)10(6-15)21-14/h2-5,10-15,17-19H,6H2,1H3/t10-,11-,12+,13-,14-/m1/s1",GOZCEKPKECLKNO-RKQHYHRCSA-N,CC(=O)c1ccc(O[C@@H]2O[C@H](CO)[C@@H](O)[C@H](O)[C@H]2O)cc1,-1.1740000000000002,0.0,1,G1
D-1698,"1,1-diphenylethene","InChI=1S/C14H12/c1-12(13-8-4-2-5-9-13)14-10-6-3-7-11-14/h2-11H,1H2",ZMYIIHDQURVDRB-UHFFFAOYSA-N,C=C(c1ccccc1)c2ccccc2,-4.436,0.0,1,G1
D-1701,isovaleryl diethylamide,"InChI=1S/C9H19NO/c1-5-10(6-2)9(11)7-8(3)4/h8H,5-7H2,1-4H3",QZMQDHNCNUGQSO-UHFFFAOYSA-N,CCN(CC)C(=O)CC(C)C,-0.595,0.0,1,G1
D-1702,"1,3-diiodo-2-propanol","InChI=1S/C3H6I2O/c4-1-3(6)2-5/h3,6H,1-2H2",DNKPFCQEGBJJTE-UHFFFAOYSA-N,OC(CI)CI,-1.3969999999999998,0.0,1,G1
D-1705,crimidine,"InChI=1S/C7H10ClN3/c1-5-4-6(11(2)3)10-7(8)9-5/h4H,1-3H3",HJIUPFPIEBPYIE-UHFFFAOYSA-N,CN(C)c1cc(C)nc(Cl)n1,-1.261,0.0,1,G1
D-1707,3-ethylpyridine,"InChI=1S/C7H9N/c1-2-7-4-3-5-8-6-7/h3-6H,2H2,1H3",MFEIKQPHQINPRI-UHFFFAOYSA-N,CCc1cccnc1,0.5379999999999999,0.0,1,G1
D-1708,tropacocaine,"InChI=1S/C15H19NO2/c1-16-12-7-8-13(16)10-14(9-12)18-15(17)11-5-3-2-4-6-11/h2-6,12-14H,7-10H2,1H3",XQJMXPAEFMWDOZ-UHFFFAOYSA-N,CN1C2CCC1CC(C2)OC(=O)c3ccccc3,-2.369,0.10485000000000011,2,G3
D-1710,"pentanoic acid, ethyl ester","InChI=1S/C7H14O2/c1-3-5-6-7(8)9-4-2/h3-6H2,1-2H3",ICMAFTSLXCXHRK-UHFFFAOYSA-N,CCCCC(=O)OCC,-1.77,0.23113247764479622,3,G5
D-1711,isobutyl urethane,"InChI=1S/C7H15NO2/c1-4-10-7(9)8-5-6(2)3/h6H,4-5H2,1-3H3,(H,8,9)",XHQBGKPHDZWOHT-UHFFFAOYSA-N,CCOC(=O)NCC(C)C,-0.768,0.0,1,G1
D-1712,"butanoic acid, pentyl ester","InChI=1S/C9H18O2/c1-3-5-6-8-11-9(10)7-4-2/h3-8H2,1-2H3",CFNJLPHOBMVMNS-UHFFFAOYSA-N,CCCCCOC(=O)CCC,-2.467,0.47709999999999986,2,G3
D-1714,"acetic acid, 1,1-dimethylethyl ester","InChI=1S/C6H12O2/c1-5(7)8-6(2,3)4/h1-4H3",WMOVHXAZOJBABW-UHFFFAOYSA-N,CC(=O)OC(C)(C)C,-1.1440000000000001,0.0,1,G1
D-1716,"butanoic acid, 3-amino-","InChI=1S/C4H9NO2/c1-3(5)2-4(6)7/h3H,2,5H2,1H3,(H,6,7)",OQEBBZSWEGYTPG-UHFFFAOYSA-N,CC(N)CC(O)=O,0.987,0.04650000000000004,2,G3
D-1720,"glycine, n-acetyl-","InChI=1S/C4H7NO3/c1-3(6)5-2-4(7)8/h2H2,1H3,(H,5,6)(H,7,8)",OKJIRPAQVSHGFK-UHFFFAOYSA-N,CC(=O)NCC(O)=O,-0.649,0.04049999999999998,2,G3
D-1721,"butane, 1,1'-oxybis 3-methyl-","InChI=1S/C10H22O/c1-9(2)5-7-11-8-6-10(3)4/h9-10H,5-8H2,1-4H3",AQZGPSLYZOOYQP-UHFFFAOYSA-N,CC(C)CCOCCC(C)C,-2.898,0.0,1,G1
D-1722,alpha-methylene butyrolactone,InChI=1S/C5H6O2/c1-4-2-3-7-5(4)6/h1-3H2,GSLDEZOOOSBFGP-UHFFFAOYSA-N,C=C1CCOC1=O,0.184,0.0,1,G1
D-1723,ethyl biscoumacetate,"InChI=1S/C22H16O8/c1-2-28-20(25)15(16-18(23)11-7-3-5-9-13(11)29-21(16)26)17-19(24)12-8-4-6-10-14(12)30-22(17)27/h3-10,15,26-27H,2H2,1H3",SEGSDVUVOWIWFX-UHFFFAOYSA-N,CCOC(=O)C(C1=C(O)Oc2ccccc2C1=O)C3=C(O)Oc4ccccc4C3=O,-3.426,0.0,1,G1
D-1724,verbenalin,"InChI=1S/C17H24O10/c1-6-3-8(19)11-7(15(23)24-2)5-25-16(10(6)11)27-17-14(22)13(21)12(20)9(4-18)26-17/h5-6,9-14,16-18,20-22H,3-4H2,1-2H3/t6-,9+,10+,11-,12+,13-,14+,16-,17-/m0/s1",HLXRWTJXGMHOFN-XJSNKYLASA-N,COC(=O)C1=CO[C@@H](O[C@@H]2O[C@H](CO)[C@@H](O)[C@H](O)[C@H]2O)[C@@H]3[C@@H](C)CC(=O)[C@H]13,-0.265,0.0,1,G1
D-1725,o-thymotic acid,"InChI=1S/C11H14O3/c1-6(2)8-5-4-7(3)9(10(8)12)11(13)14/h4-6,12H,1-3H3,(H,13,14)",FNWNGQGTFICQJU-UHFFFAOYSA-N,CC(C)c1ccc(C)c(C(O)=O)c1O,-3.2880000000000003,0.0,1,G1
D-1726,9-b-d-ribofuranosyl-9h-purine,"InChI=1S/C10H12N4O4/c15-2-6-7(16)8(17)10(18-6)14-4-13-5-1-11-3-12-9(5)14/h1,3-4,6-8,10,15-17H,2H2/t6-,7-,8-,10-/m1/s1",MRWXACSTFXYYMV-FDDDBJFASA-N,OC[C@H]1O[C@H]([C@H](O)[C@@H]1O)n2cnc3cncnc23,-0.402,0.0,1,G1
D-1728,5-nitro-2-propoxyaniline,"InChI=1S/C9H12N2O3/c1-2-5-14-9-4-3-7(11(12)13)6-8(9)10/h3-4,6H,2,5,10H2,1H3",RXQCEGOUSFBKPI-UHFFFAOYSA-N,CCCOc1ccc(cc1N)[N+]([O-])=O,-3.159,0.0,1,G1
D-1730,maleanilic acid,"InChI=1S/C10H9NO3/c12-9(6-7-10(13)14)11-8-4-2-1-3-5-8/h1-7H,(H,11,12)(H,13,14)/b7-6-",WHZLCOICKHIPRL-SREVYHEPSA-N,OC(=O)\C=C/C(=O)Nc1ccccc1,-2.281,0.0,1,G1
D-1732,"1-propene, 3,3-oxybis-","InChI=1S/C6H10O/c1-3-5-7-6-4-2/h3-4H,1-2,5-6H2",ATVJXMYDOSMEPO-UHFFFAOYSA-N,C=CCOCC=C,-0.02,0.0,1,G1
D-1734,diacetylmorphine,"InChI=1S/C21H23NO5/c1-11(23)25-16-6-4-13-10-15-14-5-7-17(26-12(2)24)20-21(14,8-9-22(15)3)18(13)19(16)27-20/h4-7,14-15,17,20H,8-10H2,1-3H3/t14-,15+,17-,20-,21-/m0/s1",GVGLGOZIDCSQPN-PVHGPHFFSA-N,CN1CC[C@]23[C@H]4Oc5c(OC(C)=O)ccc(C[C@@H]1[C@@H]2C=C[C@@H]4OC(C)=O)c35,-2.7969999999999997,0.0,1,G1
D-1735,"3,3-dimethylpentane","InChI=1S/C7H16/c1-5-7(3,4)6-2/h5-6H2,1-4H3",AEXMKKGTQYQZCS-UHFFFAOYSA-N,CCC(C)(C)CC,-4.229,0.0,1,G1
D-1736,3-methyl-1-butene,"InChI=1S/C5H10/c1-4-5(2)3/h4-5H,1H2,2-3H3",YHQXBTXEYZIYOV-UHFFFAOYSA-N,CC(C)C=C,-2.7319999999999998,0.0,1,G1
D-1737,"1-butene, 2-methyl-","InChI=1S/C5H10/c1-4-5(2)3/h2,4H2,1,3H3",MHNNAWXXUZQSNM-UHFFFAOYSA-N,CCC(C)=C,-2.7319999999999998,0.0,1,G1
D-1738,"2,2,3-trimethylpentane","InChI=1S/C8H18/c1-6-7(2)8(3,4)5/h7H,6H2,1-5H3",XTDQDBVBDLYELW-UHFFFAOYSA-N,CCC(C)C(C)(C)C,-4.678,0.0,1,G1
D-1739,"2,3-dimethylpentane","InChI=1S/C7H16/c1-5-7(4)6(2)3/h6-7H,5H2,1-4H3",WGECXQBGLLYSFP-UHFFFAOYSA-N,CCC(C)C(C)C,-4.281000000000001,0.0,1,G1
D-1741,3-methyl-2-pentanone,"InChI=1S/C6H12O/c1-4-5(2)6(3)7/h5H,4H2,1-3H3",UIHCLUNTQKBZGK-UHFFFAOYSA-N,CCC(C)C(C)=O,-0.6809999999999999,0.005499999999999949,2,G3
D-1743,2-methyl-3-pentanone,"InChI=1S/C6H12O/c1-4-6(7)5(2)3/h5H,4H2,1-3H3",HYTRYEXINDDXJK-UHFFFAOYSA-N,CCC(=O)C(C)C,-0.81,0.0,1,G1
D-1744,"2,3,4-tirmethylpentane","InChI=1S/C8H18/c1-6(2)8(5)7(3)4/h6-8H,1-5H3",RLPGDEORIPLBNF-UHFFFAOYSA-N,CC(C)C(C)C(C)C,-4.696000000000001,0.0519999999999996,2,G3
D-1745,"2,4-dimethyl-3-pentanone","InChI=1S/C7H14O/c1-5(2)7(8)6(3)4/h5-6H,1-4H3",HXVNBWAKAOHACI-UHFFFAOYSA-N,CC(C)C(=O)C(C)C,-1.3019999999999998,0.0,1,G1
D-1746,alpha-peltatin,"InChI=1S/C21H20O8/c1-25-13-4-9(5-14(26-2)19(13)23)16-11-6-15-20(29-8-28-15)18(22)12(11)3-10-7-27-21(24)17(10)16/h4-6,10,16-17,22-23H,3,7-8H2,1-2H3/t10-,16+,17-/m0/s1",JGGWNGRBXJWAOC-HKJPBSJPSA-N,COc1cc(cc(OC)c1O)[C@H]2[C@@H]3[C@H](COC3=O)Cc4c(O)c5OCOc5cc24,-4.125,0.0,1,G1
D-1748,"1,2,3-benzenetricarboxylic acid","InChI=1S/C9H6O6/c10-7(11)4-2-1-3-5(8(12)13)6(4)9(14)15/h1-3H,(H,10,11)(H,12,13)(H,14,15)",UJMDYLWCYJJYMO-UHFFFAOYSA-N,OC(=O)c1cccc(C(O)=O)c1C(O)=O,-0.8370000000000001,0.0,1,G1
D-1749,"1h-imidazole-4,5-dicarboxylic acid","InChI=1S/C5H4N2O4/c8-4(9)2-3(5(10)11)7-1-6-2/h1H,(H,6,7)(H,8,9)(H,10,11)",ZEVWQFWTGHFIDH-UHFFFAOYSA-N,OC(=O)c1[nH]cnc1C(O)=O,-2.494,0.0,1,G1
D-1756,propyliodone,"InChI=1S/C10H11I2NO3/c1-2-3-16-9(14)6-13-4-7(11)10(15)8(12)5-13/h4-5H,2-3,6H2,1H3",ROSXARVHJNYYDO-UHFFFAOYSA-N,CCCOC(=O)CN1C=C(I)C(=O)C(=C1)I,-3.5039999999999996,0.0,1,G1
D-1757,3-methylhexane,"InChI=1S/C7H16/c1-4-6-7(3)5-2/h7H,4-6H2,1-3H3",VLJXXKKOSFGPHI-UHFFFAOYSA-N,CCCC(C)CC,-4.306,0.0,1,G1
D-1759,3-hexanone,"InChI=1S/C6H12O/c1-3-5-6(7)4-2/h3-5H2,1-2H3",PFCHFHIRKBAQGU-UHFFFAOYSA-N,CCCC(=O)CC,-0.833,0.0,1,G1
D-1760,3-methylheptane,"InChI=1S/C8H18/c1-4-6-7-8(3)5-2/h8H,4-7H2,1-3H3",LAIUFBWHERIJIH-UHFFFAOYSA-N,CCCCC(C)CC,-5.159,0.0,1,G1
D-1761,"benzene, 1-bromo-4-iodo-",InChI=1S/C6H4BrI/c7-5-1-3-6(8)4-2-5/h1-4H,UCCUXODGPMAHRL-UHFFFAOYSA-N,Brc1ccc(I)cc1,-4.452,0.054050000000000153,2,G3
D-1764,"propanoic acid, butyl ester","InChI=1S/C7H14O2/c1-3-5-6-9-7(8)4-2/h3-6H2,1-2H3",BTMVHUNTONAYDX-UHFFFAOYSA-N,CCCCOC(=O)CC,-1.9380000000000002,0.0,1,G1
D-1765,"2,2-dimethylpentane","InChI=1S/C7H16/c1-5-6-7(2,3)4/h5-6H2,1-4H3",CXOWYJMDMMMMJO-UHFFFAOYSA-N,CCCC(C)(C)C,-4.357,0.0,1,G1
D-1767,"2(3h)-furanone, 5-methyl-","InChI=1S/C5H6O2/c1-4-2-3-5(6)7-4/h2H,3H2,1H3",QOTQFLOTGBBMEX-UHFFFAOYSA-N,CC1=CCC(=O)O1,-0.293,0.0,1,G1
D-1770,2-methylhexane,"InChI=1S/C7H16/c1-4-5-6-7(2)3/h7H,4-6H2,1-3H3",GXDHCNNESPLIKD-UHFFFAOYSA-N,CCCCC(C)C,-4.596,0.0,1,G1
D-1771,1-chloro-2-butene,"InChI=1S/C4H7Cl/c1-2-3-4-5/h2-3H,4H2,1H3/b3-2+",YTKRILODNOEEPX-NSCUHMNNSA-N,C/C=C/CCl,-1.9569999999999999,0.0,1,G1
D-1772,2-heptene,"InChI=1S/C7H14/c1-3-5-7-6-4-2/h3,5H,4,6-7H2,1-2H3/b5-3+",OTTZHAVKAVGASB-HWKANZROSA-N,CCCC\C=C\C,-3.8160000000000003,0.006899999999999906,2,G3
D-1773,butyl formate,"InChI=1S/C5H10O2/c1-2-3-4-7-5-6/h5H,2-4H2,1H3",NMJJFJNHVMGPGM-UHFFFAOYSA-N,CCCCOC=O,-1.131,0.11950000000000005,2,G3
D-1776,megestrol acetate,"InChI=1S/C24H32O4/c1-14-12-18-19(22(4)9-6-17(27)13-21(14)22)7-10-23(5)20(18)8-11-24(23,15(2)25)28-16(3)26/h12-13,18-20H,6-11H2,1-5H3/t18-,19+,20+,22-,23+,24+/m1/s1",RQZAXGRLVPAYTJ-GQFGMJRRSA-N,CC(=O)O[C@@]1(CC[C@H]2[C@@H]3C=C(C)C4=CC(=O)CC[C@]4(C)[C@H]3CC[C@]12C)C(C)=O,-5.284,0.0,1,G1
D-1778,"propanedioic acid, 2,2-dimethyl-","InChI=1S/C5H8O4/c1-5(2,3(6)7)4(8)9/h1-2H3,(H,6,7)(H,8,9)",OREAFAJWWJHCOT-UHFFFAOYSA-N,CC(C)(C(O)=O)C(O)=O,-0.16699999999999998,0.0,1,G1
D-1780,"butanedioic acid, 2,2-dimethyl-","InChI=1S/C6H10O4/c1-6(2,5(9)10)3-4(7)8/h3H2,1-2H3,(H,7,8)(H,9,10)",GOHPTLYPQCTZSE-UHFFFAOYSA-N,CC(C)(CC(O)=O)C(O)=O,-0.32,0.0,1,G1
D-1784,1-chloro-1-nitropropane,"InChI=1S/C3H6ClNO2/c1-2-3(4)5(6)7/h3H,2H2,1H3",XEKUXTMJEFPWCG-UHFFFAOYSA-N,CCC(Cl)[N+]([O-])=O,-1.189,0.0,1,G1
D-1785,"2,4-dimethyl-3-pentanol","InChI=1S/C7H16O/c1-5(2)7(8)6(3)4/h5-8H,1-4H3",BAYAKMPRFGNNFW-UHFFFAOYSA-N,CC(C)C(O)C(C)C,-1.22,0.0,1,G1
D-1787,"benzoic acid, 2,6-dibromo-3,4,5-trihydroxy-","InChI=1S/C7H4Br2O5/c8-2-1(7(13)14)3(9)5(11)6(12)4(2)10/h10-12H,(H,13,14)",RZMMKKHHNDGXPD-UHFFFAOYSA-N,OC(=O)c1c(Br)c(O)c(O)c(O)c1Br,-0.419,0.0,1,G1
D-1788,"2,4,6-trinitroanisole","InChI=1S/C7H5N3O7/c1-17-7-5(9(13)14)2-4(8(11)12)3-6(7)10(15)16/h2-3H,1H3",FMXDVBRYDYFVGS-UHFFFAOYSA-N,COc1c(cc(cc1[N+]([O-])=O)[N+]([O-])=O)[N+]([O-])=O,-3.085,0.0,1,G1
D-1791,4-hydroxyquinoline,"InChI=1S/C9H7NO/c11-9-5-6-10-8-4-2-1-3-7(8)9/h1-6H,(H,10,11)",PMZDQRJGMBOQBF-UHFFFAOYSA-N,O=C1C=CNc2ccccc12,-1.4809999999999999,0.057499999999999996,2,G3
D-1792,"benzeneacetic acid, .alpha.-hydroxy-, (.+-.)-","InChI=1S/C8H8O3/c9-7(8(10)11)6-4-2-1-3-5-6/h1-5,7,9H,(H,10,11)",IWYDHOAUDWTVEP-UHFFFAOYSA-N,OC(C(O)=O)c1ccccc1,0.053,0.0965850229935608,3,G5
D-1794,"benzene, 1-chloro-2-iodo-",InChI=1S/C6H4ClI/c7-5-3-1-2-4-6(5)8/h1-4H,MPEOPBCQHNWNFB-UHFFFAOYSA-N,Clc1ccccc1I,-3.532,0.0,1,G1
D-1795,"benzene, 1,2-diiodo-",InChI=1S/C6H4I2/c7-5-3-1-2-4-6(5)8/h1-4H,BBOLNFYSRZVALD-UHFFFAOYSA-N,Ic1ccccc1I,-4.217,0.01144999999999996,2,G3
D-1798,1-penten-3-ol,"InChI=1S/C5H10O/c1-3-5(6)4-2/h3,5-6H,1,4H2,2H3",VHVMXWZXFBOANQ-UHFFFAOYSA-N,CCC(O)C=C,0.02,0.0,1,G1
D-1799,"ethanamine, n-ethyl-n-methyl-","InChI=1S/C5H13N/c1-4-6(3)5-2/h4-5H2,1-3H3/p+1",GNVRJGIVDSQCOP-UHFFFAOYSA-O,CC[NH+](C)CC,0.713,0.0,1,G1
D-1801,"benzaldehyde, 2-(.beta.-d-glucopyranosyloxy)-","InChI=1S/C13H16O7/c14-5-7-3-1-2-4-8(7)19-13-12(18)11(17)10(16)9(6-15)20-13/h1-5,9-13,15-18H,6H2/t9-,10-,11+,12-,13-/m1/s1",BGOFCVIGEYGEOF-UJPOAAIJSA-N,OC[C@H]1O[C@@H](Oc2ccccc2C=O)[C@H](O)[C@@H](O)[C@@H]1O,-1.198,0.0,1,G1
D-1802,5-hydroxyisophthalic acid,"InChI=1S/C8H6O5/c9-6-2-4(7(10)11)1-5(3-6)8(12)13/h1-3,9H,(H,10,11)(H,12,13)",QNVNLUSHGRBCLO-UHFFFAOYSA-N,OC(=O)c1cc(O)cc(c1)C(O)=O,-2.4819999999999998,0.0,1,G1
D-1803,"3,4-dimethylbenzoic acid","InChI=1S/C9H10O2/c1-6-3-4-8(9(10)11)5-7(6)2/h3-5H,1-2H3,(H,10,11)/p-1",OPVAJFQBSDUNQA-UHFFFAOYSA-M,Cc1ccc(cc1C)C([O-])=O,-3.0660000000000003,0.0,1,G1
D-1804,"benzene, 1-ethenyl-4-methyl-","InChI=1S/C9H10/c1-3-9-6-4-8(2)5-7-9/h3-7H,1H2,2H3",JLBJTVDPSNHSKJ-UHFFFAOYSA-N,Cc1ccc(C=C)cc1,-3.123,0.0,1,G1
D-1806,"butanoic acid, methyl ester","InChI=1S/C5H10O2/c1-3-4-5(6)7-2/h3-4H2,1-2H3",UUIQMZJEGPQKFD-UHFFFAOYSA-N,CCCC(=O)OC,-0.833,0.5155081635305756,3,G4
D-1807,5-nonanol,"InChI=1S/C9H20O/c1-3-5-7-9(10)8-6-4-2/h9-10H,3-8H2,1-2H3",FCBBRODPXVPZAH-UHFFFAOYSA-N,CCCCC(O)CCCC,-2.49,0.0,1,G1
D-1809,"2-butenedioic acid (z)-, dimethyl ester","InChI=1S/C6H8O4/c1-9-5(7)3-4-6(8)10-2/h3-4H,1-2H3/b4-3-",LDCRTTXIJACKKU-ARJAWSKDSA-N,COC(=O)\C=C/C(=O)OC,-0.256,0.0,1,G1
D-1810,3-nonanol,"InChI=1S/C9H20O/c1-3-5-6-7-8-9(10)4-2/h9-10H,3-8H2,1-2H3",GYSCXPVAKHVAAY-UHFFFAOYSA-N,CCCCCCC(O)CC,-2.654,0.0,1,G1
D-1811,"ethane, 1,2-diiodo-",InChI=1S/C2H4I2/c3-1-2-4/h1-2H2,GBBZLMLLFVFKJM-UHFFFAOYSA-N,ICCI,-3.216,0.0,1,G1
D-1817,1-methoxy-2-methylpropane,"InChI=1S/C5H12O/c1-5(2)4-6-3/h5H,4H2,1-3H3",ZYVYEJXMYBUCMN-UHFFFAOYSA-N,COCC(C)C,-0.9,0.0,1,G1
D-1819,"formic acid, 1-methylethyl ester","InChI=1S/C4H8O2/c1-4(2)6-3-5/h3-4H,1-2H3",RMOUBSOVHSONPZ-UHFFFAOYSA-N,CC(C)OC=O,-0.629,0.0,1,G1
D-1821,"benzene, 1,3-diiodo-",InChI=1S/C6H4I2/c7-5-2-1-3-6(8)4-5/h1-4H,SFPQFQUXAJOWNF-UHFFFAOYSA-N,Ic1cccc(I)c1,-4.518,0.026000000000000245,2,G3
D-1825,3-bromo-1-propanol,"InChI=1S/C3H7BrO/c4-2-1-3-5/h5H,1-3H2",RQFUZUMFPRMVDX-UHFFFAOYSA-N,OCCCBr,0.009000000000000001,0.0,1,G1
D-1827,3-chloro-1-propanol,"InChI=1S/C3H7ClO/c4-2-1-3-5/h5H,1-3H2",LAMUXTNQCICZQX-UHFFFAOYSA-N,OCCCCl,0.42200000000000004,0.0,1,G1
D-1831,"acetic acid, pentyl ester","InChI=1S/C7H14O2/c1-3-4-5-6-9-7(2)8/h3-6H2,1-2H3",PGMYKACGEOXYJE-UHFFFAOYSA-N,CCCCCOC(C)=O,-1.8769999999999998,0.006500000000000061,2,G3
D-1834,2-nonanol,"InChI=1S/C9H20O/c1-3-4-5-6-7-8-9(2)10/h9-10H,3-8H2,1-2H3",NGDNVOAEIVQRFH-UHFFFAOYSA-N,CCCCCCCC(C)O,-2.7439999999999998,0.0,1,G1
D-1836,1-pentadecanol,"InChI=1S/C15H32O/c1-2-3-4-5-6-7-8-9-10-11-12-13-14-15-16/h16H,2-15H2,1H3",REIUXOLGHVXAEO-UHFFFAOYSA-N,CCCCCCCCCCCCCCCO,-6.35,0.03000000000000025,2,G3
D-1837,"2,3,4-pyridinetricarboxylic acid","InChI=1S/C8H5NO6/c10-6(11)3-1-2-9-5(8(14)15)4(3)7(12)13/h1-2H,(H,10,11)(H,12,13)(H,14,15)",VOTYOVOSRFKUSM-UHFFFAOYSA-N,OC(=O)c1ccnc(C(O)=O)c1C(O)=O,-1.245,0.0,1,G1
D-1839,"propanoic acid, 1-methylethyl ester","InChI=1S/C6H12O2/c1-4-6(7)8-5(2)3/h5H,4H2,1-3H3",IJMWOMHMDSDKGK-UHFFFAOYSA-N,CCC(=O)OC(C)C,-1.29,0.0,1,G1
D-1841,"4h-1,3,5-dithiazine, dihydro-2,4,6-trimethyl-,","InChI=1S/C6H13NS2/c1-4-7-5(2)9-6(3)8-4/h4-7H,1-3H3",FBMVFHKKLDGLJA-UHFFFAOYSA-N,CC1NC(C)SC(C)S1,-1.368,0.0,1,G1
D-1844,"2-pentene, trans","InChI=1S/C5H10/c1-3-5-4-2/h3,5H,4H2,1-2H3/b5-3+",QMMOXUPEWRXHJS-HWKANZROSA-N,CC\C=C\C,-2.5380000000000003,0.0,1,G1
D-1845,1-buten-3-yne,"InChI=1S/C4H4/c1-3-4-2/h1,4H,2H2",WFYPICNXBKQZGB-UHFFFAOYSA-N,C=CC#C,-1.464,0.0,1,G1
D-1848,"benzene, 1-bromo-2-chloro-",InChI=1S/C6H4BrCl/c7-5-3-1-2-4-6(5)8/h1-4H,QBELEDRHMPMKHP-UHFFFAOYSA-N,Clc1ccccc1Br,-3.2030000000000003,0.20442276455098296,3,G5
D-1850,2-methyl-1-pentene,"InChI=1S/C6H12/c1-4-5-6(2)3/h2,4-5H2,1,3H3",WWUVJRULCWHUSA-UHFFFAOYSA-N,CCCC(C)=C,-3.033,0.0,1,G1
D-1851,"quinoline, decahydro-","InChI=1S/C9H17N/c1-2-6-9-8(4-1)5-3-7-10-9/h8-10H,1-7H2/t8-,9+/m1/s1",POTIYWUALSJREP-BDAKNGLRSA-N,C1CC[C@@H]2NCCC[C@H]2C1,-1.083,0.0,1,G1
D-1853,"pentanedioic acid, diethyl ester","InChI=1S/C9H16O4/c1-3-12-8(10)6-5-7-9(11)13-4-2/h3-7H2,1-2H3",OUWSNHWQZPEFEX-UHFFFAOYSA-N,CCOC(=O)CCCC(=O)OCC,-1.33,0.0,1,G1
D-1854,4-penten-1-ol,"InChI=1S/C5H10O/c1-2-3-4-5-6/h2,6H,1,3-5H2",LQAVWYMTUMSFBE-UHFFFAOYSA-N,OCCCC=C,-0.179,0.014499999999999999,2,G3
D-1856,bromosuccinic acid,"InChI=1S/C4H5BrO4/c5-2(4(8)9)1-3(6)7/h2H,1H2,(H,6,7)(H,8,9)",QQWGVQWAEANRTK-UHFFFAOYSA-N,OC(=O)CC(Br)C(O)=O,-0.215,0.0,1,G1
D-1857,3-hexyne,"InChI=1S/C6H10/c1-3-5-6-4-2/h3-4H2,1-2H3",DQQNMIPXXNPGCV-UHFFFAOYSA-N,CCC#CCC,-2.167,0.08849999999999991,2,G3
D-1859,"benzenamine, 2,4-dinitro-n-phenyl-","InChI=1S/C12H9N3O4/c16-14(17)10-6-7-11(12(8-10)15(18)19)13-9-4-2-1-3-5-9/h1-8,13H",RHTVQEPJVKUMPI-UHFFFAOYSA-N,[O-][N+](=O)c1ccc(Nc2ccccc2)c(c1)[N+]([O-])=O,-3.8339999999999996,0.0,1,G1
D-1860,"benzenesulfonamide, 4-amino-n-(6-ethoxy-3-pyrid-","InChI=1S/C12H14N4O3S/c1-2-19-12-8-7-11(14-15-12)16-20(17,18)10-5-3-9(13)4-6-10/h3-8H,2,13H2,1H3,(H,14,16)",FFJIWWBSBCOKLS-UHFFFAOYSA-N,CCOc1ccc(N[S](=O)(=O)c2ccc(N)cc2)nn1,-2.427,0.0,1,G1
D-1862,desmetryne,"InChI=1S/C8H15N5S/c1-5(2)10-7-11-6(9-3)12-8(13-7)14-4/h5H,1-4H3,(H2,9,10,11,12,13)",HCRWJJJUKUVORR-UHFFFAOYSA-N,CNc1nc(NC(C)C)nc(SC)n1,-2.5660000000000003,0.00800000000000023,2,G3
D-1863,"benzene, 1-bromo-2-fluoro-",InChI=1S/C6H4BrF/c7-5-3-1-2-4-6(5)8/h1-4H,IPWBFGUBXWMIPR-UHFFFAOYSA-N,Fc1ccccc1Br,-2.695,0.0,1,G1
D-1865,2-heptyne,"InChI=1S/C7H12/c1-3-5-7-6-4-2/h3,5,7H2,1-2H3",AMSFEMSYKQQCHL-UHFFFAOYSA-N,CCCCC#CC,-2.7710000000000004,0.0,1,G1
D-1867,tranexamic acid,"InChI=1S/C8H15NO2/c9-5-6-1-3-7(4-2-6)8(10)11/h6-7H,1-5,9H2,(H,10,11)",GYDJEQRTZSCIOI-UHFFFAOYSA-N,NCC1CCC(CC1)C(O)=O,0.026000000000000002,0.0,1,G1
D-1870,"piperidine, 3-ethyl-,","InChI=1S/C7H15N/c1-2-7-5-3-4-6-8-7/h7-8H,2-6H2,1H3/t7-/m1/s1",QBBKKFZGCDJDQK-SSDOTTSWSA-N,CC[C@@H]1CCCCN1,-0.34600000000000003,0.0,1,G1
D-1871,2-(acetyloxy)-4-bromo-benzoic acid,"InChI=1S/C9H7BrO4/c1-5(11)14-8-3-2-6(10)4-7(8)9(12)13/h2-4H,1H3,(H,12,13)",VRJBEVQGJOSGOX-UHFFFAOYSA-N,CC(=O)Oc1ccc(Br)cc1C(O)=O,-2.589,0.0,1,G1
D-1872,"urea, (4-methoxyphenyl)-","InChI=1S/C8H10N2O2/c1-12-7-4-2-6(3-5-7)10-8(9)11/h2-5H,1H3,(H3,9,10,11)",PGUKYDVWVXRPKK-UHFFFAOYSA-N,COc1ccc(NC(N)=O)cc1,-1.5919999999999999,0.0,1,G1
D-1873,3-penten-2-ol,"InChI=1S/C5H10O/c1-3-4-5(2)6/h3-6H,1-2H3/b4-3+",GJYMQFMQRRNLCY-ONEGZZNKSA-N,C/C=C/C(C)O,0.015,0.0,1,G1
D-1875,pentrinitrol,"InChI=1S/C5H9N3O10/c9-1-5(2-16-6(10)11,3-17-7(12)13)4-18-8(14)15/h9H,1-4H2",BRBAEHHXGZRCBK-UHFFFAOYSA-N,OCC(CO[N+]([O-])=O)(CO[N+]([O-])=O)CO[N+]([O-])=O,-1.585,0.0,1,G1
D-1876,2-undecanol,"InChI=1S/C11H24O/c1-3-4-5-6-7-8-9-10-11(2)12/h11-12H,3-10H2,1-2H3",XMUJIPOFTAHSOK-UHFFFAOYSA-N,CCCCCCCCCC(C)O,-2.94,0.0,1,G1
D-1877,"1,10-phenanthroline, 3,4,7,8-tetramethyl-","InChI=1S/C16H16N2/c1-9-7-17-15-13(11(9)3)5-6-14-12(4)10(2)8-18-16(14)15/h5-8H,1-4H3",NPAXPTHCUCUHPT-UHFFFAOYSA-N,Cc1cnc2c(ccc3c(C)c(C)cnc23)c1C,-5.195,0.0,1,G1
D-1878,doxepin,"InChI=1S/C19H21NO/c1-20(2)13-7-11-17-16-9-4-3-8-15(16)14-21-19-12-6-5-10-18(17)19/h3-6,8-12H,7,13-14H2,1-2H3/b17-11+",ODQWQRRAPPTVAG-GZTJUZNOSA-N,CN(C)CC\C=C1/c2ccccc2COc3ccccc13,-3.947,0.0,1,G1
D-1880,"phenol, 4-(phenylazo)-","InChI=1S/C12H10N2O/c15-12-8-6-11(7-9-12)14-13-10-4-2-1-3-5-10/h1-9,13H",JTSBGMZPPPULTA-UHFFFAOYSA-N,O=C1C=CC(C=C1)=NNc2ccccc2,-3.343,0.0,1,G1
D-1887,psicofuranine,"InChI=1S/C11H15N5O5/c12-9-6-10(14-3-13-9)16(4-15-6)11(2-18)8(20)7(19)5(1-17)21-11/h3-5,7-8,17-20H,1-2H2,(H2,12,13,14)/t5-,7-,8-,11-/m1/s1",BNZYRKVSCLSXSJ-IOSLPCCCSA-N,Nc1ncnc2n(cnc12)[C@]3(CO)O[C@H](CO)[C@@H](O)[C@H]3O,-1.57,0.0,1,G1