ID,Name,InChI,InChIKey,SMILES,Solubility,SD,Occurrences,Group
C-321,"1,3-dinitrobenzene",InChI=1S/C6H4N2O4/c9-7(10)5-2-1-3-6(4-5)8(11)12/h1-4H,WDCYWAQPCXBPJA-UHFFFAOYSA-N,[O-][N+](=O)C1=CC(=CC=C1)[N+]([O-])=O,-2.5,0.10499999999999998,2,G3
C-322,4-isothiocyanatobenzoic acid,"InChI=1S/C8H5NO2S/c10-8(11)6-1-3-7(4-2-6)9-5-12/h1-4H,(H,10,11)",RBEFRYQKJYMLCC-UHFFFAOYSA-N,OC(=O)C1=CC=C(C=C1)N=C=S,-3.98,0.0,1,G1
C-323,hypoxanthine,"InChI=1S/C5H4N4O/c10-5-3-4(7-1-6-3)8-2-9-5/h1-2H,(H2,6,7,8,9,10)",FDGQSTZJBFJUBT-UHFFFAOYSA-N,O=C1NC=NC2=C1N=C[NH]2,-2.28,0.008000000000000007,2,G3
C-324,"3,4-pyridinedicarboxylic  acid;  cinchomeronic  acid","InChI=1S/C7H5NO4/c9-6(10)4-1-2-8-3-5(4)7(11)12/h1-3H,(H,9,10)(H,11,12)",MUYSADWCWFFZKR-UHFFFAOYSA-N,OC(=O)C1=C(C=NC=C1)C(O)=O,-1.86,0.0,1,G1
C-327,baclofen;  4-amino-3-(4-chlorophenyl)butanoic acid,"InChI=1S/C10H12ClNO2/c11-9-3-1-7(2-4-9)8(6-12)5-10(13)14/h1-4,8H,5-6,12H2,(H,13,14)",KPYSYYIEGFHWSV-UHFFFAOYSA-N,NCC(CC(O)=O)C1=CC=C(Cl)C=C1,-1.7,0.0,1,G1
C-328,3-isothiocyanatobenzoic acid,"InChI=1S/C8H5NO2S/c10-8(11)6-2-1-3-7(4-6)9-5-12/h1-4H,(H,10,11)",PJRBPKOOGLKPFB-UHFFFAOYSA-N,OC(=O)C1=CC(=CC=C1)N=C=S,-3.25,0.0,1,G1
C-330,"1,2-dinitrobenzene",InChI=1S/C6H4N2O4/c9-7(10)5-3-1-2-4-6(5)8(11)12/h1-4H,IZUKQUVSCNEFMJ-UHFFFAOYSA-N,[O-][N+](=O)C1=C(C=CC=C1)[N+]([O-])=O,-3.1,0.0,1,G1
C-331,butallylonal;  5-(2-bromoallyl)-5-sec-butylbarbituric  acid,"InChI=1S/C11H15BrN2O3/c1-4-6(2)11(5-7(3)12)8(15)13-10(17)14-9(11)16/h6H,3-5H2,1-2H3,(H2,13,14,15,16,17)",FWZMBTIUIQUJFF-UHFFFAOYSA-N,CCC(C)C1(CC(Br)=C)C(=O)NC(=O)NC1=O,-2.65,0.0,1,G1
C-333,2-aminonaphthalene;  2-naphthylamine,"InChI=1S/C10H9N/c11-10-6-5-8-3-1-2-4-9(8)7-10/h1-7H,11H2",JBIJLHTVPXGSAM-UHFFFAOYSA-N,NC1=CC2=C(C=CC=C2)C=C1,-2.88,0.0,1,G1
C-334,4-[3-(adamantan-1-yl)ureido]butanoic acid pentyl ester;  pentyl  4-[3'-(adamantan-1''-yl)ureido]butanoate,"InChI=1S/C20H34N2O3/c1-2-3-4-8-25-18(23)6-5-7-21-19(24)22-20-12-15-9-16(13-20)11-17(10-15)14-20/h15-17H,2-14H2,1H3,(H2,21,22,24)",NQJCTWSXXZBQGX-UHFFFAOYSA-N,CCCCCOC(=O)CCCNC(=O)N[C]12C[CH]3[CH2]C([CH2][CH](C3)C1)C2,-2.32,0.0,1,G1
C-336,"4,5-dichloroveratrole;  1,2-dichloro-4,5-dimethoxybenzene","InChI=1S/C8H8Cl2O2/c1-11-7-3-5(9)6(10)4-8(7)12-2/h3-4H,1-2H3",RJYXLZQZBLGBOM-UHFFFAOYSA-N,COC1=C(OC)C=C(Cl)C(=C1)Cl,-3.46,0.0,1,G1
C-342,"isoproturon;  1-(4-isopropyl)phenyl-3,3-dimethylurea","InChI=1S/C12H18N2O/c1-9(2)10-5-7-11(8-6-10)13-12(15)14(3)4/h5-9H,1-4H3,(H,13,15)",PUIYMUZLKQOUOZ-UHFFFAOYSA-N,CC(C)C1=CC=C(NC(=O)N(C)C)C=C1,-3.47,0.03499999999999992,2,G3
C-343,ascorbic  acid;  vitamin c,"InChI=1S/C6H8O6/c7-1-2(8)5-3(9)4(10)6(11)12-5/h2,5,7-10H,1H2",CIWBSHSKHKDKBQ-UHFFFAOYSA-N,OCC(O)C1OC(=O)C(=C1O)O,0.28,0.0,1,G1
C-348,"isouron;  3-(5-tert-butylisoxazol-3-yl)-1,1-dimethylurea","InChI=1S/C10H17N3O2/c1-10(2,3)7-6-8(12-15-7)11-9(14)13(4)5/h6H,1-5H3,(H,11,12,14)",JLLJHQLUZAKJFH-UHFFFAOYSA-N,CN(C)C(=O)NC1=NOC(=C1)C(C)(C)C,-2.43,0.0,1,G1
C-351,4-nitrophenyl  acetate,"InChI=1S/C8H7NO4/c1-6(10)13-8-4-2-7(3-5-8)9(11)12/h2-5H,1H3",QAUUDNIGJSLPSX-UHFFFAOYSA-N,CC(=O)OC1=CC=C(C=C1)[N+]([O-])=O,-2.54,0.0,1,G1
C-354,8-hydroxyquinoline;  8-quinolinol,"InChI=1S/C9H7NO/c11-8-5-1-3-7-4-2-6-10-9(7)8/h1-6,11H",MCJGNVYPOGVAJF-UHFFFAOYSA-N,OC1=CC=CC2=C1N=CC=C2,-2.32,0.050000000000000044,2,G3
C-356,2-(4-chlorophenoxy)propanoic acid,"InChI=1S/C9H9ClO3/c1-6(9(11)12)13-8-4-2-7(10)3-5-8/h2-6H,1H3,(H,11,12)",DKHJWWRYTONYHB-UHFFFAOYSA-N,CC(OC1=CC=C(Cl)C=C1)C(O)=O,-2.13,0.0,1,G1
C-359,5-bromosalicylic acid,"InChI=1S/C7H5BrO3/c8-4-1-2-6(9)5(3-4)7(10)11/h1-3,9H,(H,10,11)",IEJOONSLOGAXNO-UHFFFAOYSA-N,OC(=O)C1=C(O)C=CC(=C1)Br,-2.65,0.0,1,G1
C-362,promecarb,"InChI=1S/C12H17NO2/c1-8(2)10-5-9(3)6-11(7-10)15-12(14)13-4/h5-8H,1-4H3,(H,13,14)",DTAPQAJKAFRNJB-UHFFFAOYSA-N,CNC(=O)OC1=CC(=CC(=C1)C)C(C)C,-3.36,0.0,1,G1
C-366,"4-(4-chloro-2-methylphenoxy)butanoic acid;  2,4-mcpb","InChI=1S/C11H13ClO3/c1-8-7-9(12)4-5-10(8)15-6-2-3-11(13)14/h4-5,7H,2-3,6H2,1H3,(H,13,14)",LLWADFLAOKUBDR-UHFFFAOYSA-N,CC1=C(OCCCC(O)=O)C=CC(=C1)Cl,-3.68,0.0,1,G1
C-370,1-naphthalenemethanol;  1-hydroxymethylnaphthalene,"InChI=1S/C11H10O/c12-8-10-6-3-5-9-4-1-2-7-11(9)10/h1-7,12H,8H2",PBLNHHSDYFYZNC-UHFFFAOYSA-N,OCC1=CC=CC2=C1C=CC=C2,-1.74,0.0,1,G1
C-372,"2,4-dinitrotoluene","InChI=1S/C7H6N2O4/c1-5-2-3-6(8(10)11)4-7(5)9(12)13/h2-4H,1H3",RMBFBMJGBANMMK-UHFFFAOYSA-N,CC1=C(C=C(C=C1)[N+]([O-])=O)[N+]([O-])=O,-2.82,0.0,1,G1
C-374,dimethyl terephthalate,"InChI=1S/C10H10O4/c1-13-9(11)7-3-5-8(6-4-7)10(12)14-2/h3-6H,1-2H3",WOZVHXUHUFLZGK-UHFFFAOYSA-N,COC(=O)C1=CC=C(C=C1)C(=O)OC,-4.01,0.0,1,G1
C-376,biphenyl;  diphenyl,InChI=1S/C12H10/c1-3-7-11(8-4-1)12-9-5-2-6-10-12/h1-10H,ZUOUZKKEUPVFJK-UHFFFAOYSA-N,C1=CC=C(C=C1)C2=CC=CC=C2,-4.32,0.015627610892974604,3,G5
C-377,sulfanilic acid,"InChI=1S/C6H7NO3S/c7-5-1-3-6(4-2-5)11(8,9)10/h1-4H,7H2,(H,8,9,10)",HVBSAKJJOYLTQU-UHFFFAOYSA-N,NC1=CC=C(C=C1)[S](O)(=O)=O,-1.12,0.04254999999999998,2,G3
C-384,4-iodophenyl  isothiocyanate;  4-isothiocyanatoiodobenzene,InChI=1S/C7H4INS/c8-6-1-3-7(4-2-6)9-5-10/h1-4H,SNLGBRZZFRSXHA-UHFFFAOYSA-N,IC1=CC=C(C=C1)N=C=S,-4.05,0.0,1,G1
C-385,deoxycholic acid,"InChI=1S/C24H40O4/c1-14(4-9-22(27)28)18-7-8-19-17-6-5-15-12-16(25)10-11-23(15,2)20(17)13-21(26)24(18,19)3/h14-21,25-26H,4-13H2,1-3H3,(H,27,28)",KXGVEGMKQFWNSR-UHFFFAOYSA-N,CC(CCC(O)=O)C1CCC2C3CCC4CC(O)CCC4(C)C3CC(O)C12C,-4.55,0.2999999999999998,2,G3
C-388,acetamiprid,"InChI=1S/C10H11ClN4/c1-8(14-7-12)15(2)6-9-3-4-10(11)13-5-9/h3-5H,6H2,1-2H3",WCXDHFDTOYPNIE-UHFFFAOYSA-N,CN(CC1=CC=C(Cl)N=C1)C(C)=NC#N,-1.72,0.0,1,G1
C-391,"1,4-diiodobenzene",InChI=1S/C6H4I2/c7-5-1-2-6(8)4-3-5/h1-4H,LFMWZTSOMGDDJU-UHFFFAOYSA-N,IC1=CC=C(I)C=C1,-5.37,0.0,1,G1
C-392,acenaphthene,"InChI=1S/C12H10/c1-3-9-4-2-6-11-8-7-10(5-1)12(9)11/h1-6H,7-8H2",CWRYPZZKDGJXCA-UHFFFAOYSA-N,C1CC2=CC=CC3=CC=CC1=C23,-4.61,0.013572848714335,3,G5
C-393,nitrofurazone,"InChI=1S/C6H6N4O4/c7-6(11)9-8-3-4-1-2-5(14-4)10(12)13/h1-3H,(H3,7,9,11)/b8-3+",IAIWVQXQOWNYOU-FPYGCLRLSA-N,NC(=O)N/N=C/C1=CC=C(O1)[N+]([O-])=O,-2.98,0.0,1,G1
C-396,"2,5-dinitrophenol","InChI=1S/C6H4N2O5/c9-6-3-4(7(10)11)1-2-5(6)8(12)13/h1-3,9H",UWEZBKLLMKVIPI-UHFFFAOYSA-N,OC1=C(C=CC(=C1)[N+]([O-])=O)[N+]([O-])=O,-2.68,0.0,1,G1
C-397,"3,4-dichlorophenoxyacetic acid","InChI=1S/C8H6Cl2O3/c9-6-2-1-5(3-7(6)10)13-4-8(11)12/h1-3H,4H2,(H,11,12)",SNYRXHULAWEECU-UHFFFAOYSA-N,OC(=O)COC1=CC(=C(Cl)C=C1)Cl,-2.68,0.0,1,G1
C-400,"3,5-dinitrophenol","InChI=1S/C6H4N2O5/c9-6-2-4(7(10)11)1-5(3-6)8(12)13/h1-3,9H",UEMBNLWZFIWQFL-UHFFFAOYSA-N,OC1=CC(=CC(=C1)[N+]([O-])=O)[N+]([O-])=O,-1.66,0.0,1,G1
C-404,"l-dopa;  3-(3,4-dihydroxyphenyl)-l-alanine;  levodopa","InChI=1S/C9H11NO4/c10-6(9(13)14)3-5-1-2-7(11)8(12)4-5/h1-2,4,6,11-12H,3,10H2,(H,13,14)",WTDRDQBEARUVNC-UHFFFAOYSA-N,NC(CC1=CC=C(O)C(=C1)O)C(O)=O,-1.82,0.10999999999999999,2,G3
C-406,triforine,"InChI=1S/C10H14Cl6N4O2/c11-9(12,13)7(17-5-21)19-1-2-20(4-3-19)8(18-6-22)10(14,15)16/h5-8H,1-4H2,(H,17,21)(H,18,22)",RROQIUMZODEXOR-UHFFFAOYSA-N,ClC(Cl)(Cl)C(NC=O)N1CCN(CC1)C(NC=O)C(Cl)(Cl)Cl,-4.16,0.015000000000000124,2,G3
C-408,"2,3,4,5-tetrachloroanisole;  1-methoxy-2,3,4,5-tetrachlorobenzene","InChI=1S/C7H4Cl4O/c1-12-4-2-3(8)5(9)7(11)6(4)10/h2H,1H3",FUUHMSUPRUNWRQ-UHFFFAOYSA-N,COC1=C(Cl)C(=C(Cl)C(=C1)Cl)Cl,-5.26,0.0,1,G1
C-410,"1,3,5-tribromobenzene",InChI=1S/C6H3Br3/c7-4-1-5(8)3-6(9)2-4/h1-3H,YWDUZLFWHVQCHY-UHFFFAOYSA-N,BrC1=CC(=CC(=C1)Br)Br,-5.6,0.0,1,G1
C-412,monolinuron;  3-(4-chlorophenyl)-1-methoxy-1-methylurea,"InChI=1S/C9H11ClN2O2/c1-12(14-2)9(13)11-8-5-3-7(10)4-6-8/h3-6H,1-2H3,(H,11,13)",LKJPSUCKSLORMF-UHFFFAOYSA-N,CON(C)C(=O)NC1=CC=C(Cl)C=C1,-2.47,0.0845235010054731,3,G5
C-413,"diuron;  3-(3,4-dichlorophenyl)-1,1-dimethylurea","InChI=1S/C9H10Cl2N2O/c1-13(2)9(14)12-6-3-4-7(10)8(11)5-6/h3-5H,1-2H3,(H,12,14)",XMTQQYYKAHVGBJ-UHFFFAOYSA-N,CN(C)C(=O)NC1=CC(=C(Cl)C=C1)Cl,-3.77,0.022881336402307367,3,G5
C-414,"1,2,4-tribromobenzene",InChI=1S/C6H3Br3/c7-4-1-2-5(8)6(9)3-4/h1-3H,FWAJPSIPOULHHH-UHFFFAOYSA-N,BrC1=CC(=C(Br)C=C1)Br,-4.81,0.1549999999999998,2,G3
C-415,4-chloro-3-nitrobenzoic  acid,"InChI=1S/C7H4ClNO4/c8-5-2-1-4(7(10)11)3-6(5)9(12)13/h1-3H,(H,10,11)",DFXQXFGFOLXAPO-UHFFFAOYSA-N,OC(=O)C1=CC=C(Cl)C(=C1)[N+]([O-])=O,-2.76,0.0,1,G1
C-416,"4-(2,4-dichlorophenoxy)butanoic  acid;  2,4-db","InChI=1S/C10H10Cl2O3/c11-7-3-4-9(8(12)6-7)15-5-1-2-10(13)14/h3-4,6H,1-2,5H2,(H,13,14)",YIVXMZJTEQBPQO-UHFFFAOYSA-N,OC(=O)CCCOC1=C(Cl)C=C(Cl)C=C1,-3.57,0.050000000000000044,2,G3
C-417,5-chloro-2-nitrobenzoic  acid,"InChI=1S/C7H4ClNO4/c8-4-1-2-6(9(12)13)5(3-4)7(10)11/h1-3H,(H,10,11)",ZKUYSJHXBFFGPU-UHFFFAOYSA-N,OC(=O)C1=C(C=CC(=C1)Cl)[N+]([O-])=O,-1.32,0.0,1,G1
C-418,diphenylamine,"InChI=1S/C12H11N/c1-3-7-11(8-4-1)13-12-9-5-2-6-10-12/h1-10,13H",DMBHHRLKUKUOEG-UHFFFAOYSA-N,N(C1=CC=CC=C1)C2=CC=CC=C2,-2.75,0.3799999999999999,2,G3
C-419,methocarbamol;  3-(2-methoxyphenoxy)-2-hydroxypropyl 1-carbamate,"InChI=1S/C11H15NO5/c1-15-9-4-2-3-5-10(9)16-6-8(13)7-17-11(12)14/h2-5,8,13H,6-7H2,1H3,(H2,12,14)",GNXFOGHNGIVQEH-UHFFFAOYSA-N,COC1=CC=CC=C1OCC(O)COC(N)=O,-1.53,0.2725,2,G3
C-420,cholic  acid,"InChI=1S/C24H40O5/c1-13(4-7-21(28)29)16-5-6-17-22-18(12-20(27)24(16,17)3)23(2)9-8-15(25)10-14(23)11-19(22)26/h13-20,22,25-27H,4-12H2,1-3H3,(H,28,29)",BHQCQFFYRZLCQQ-UHFFFAOYSA-N,CC(CCC(O)=O)C1CCC2C3C(O)CC4CC(O)CCC4(C)C3CC(O)C12C,-3.63,0.1299999999999999,2,G3
C-421,lidocaine;  lignocaine;  xylocaine,"InChI=1S/C14H22N2O/c1-5-16(6-2)10-13(17)15-14-11(3)8-7-9-12(14)4/h7-9H,5-6,10H2,1-4H3,(H,15,17)",NNJVILVZKWQKPM-UHFFFAOYSA-N,CCN(CC)CC(=O)NC1=C(C)C=CC=C1C,-1.79,0.015000000000000013,2,G3
C-422,alclofenac,"InChI=1S/C11H11ClO3/c1-2-5-15-10-4-3-8(6-9(10)12)7-11(13)14/h2-4,6H,1,5,7H2,(H,13,14)",ARHWPKZXBHOEEE-UHFFFAOYSA-N,OC(=O)CC1=CC(=C(OCC=C)C=C1)Cl,-3.13,0.0,1,G1
C-427,3-chloro-2-nitrobenzoic  acid,"InChI=1S/C7H4ClNO4/c8-5-3-1-2-4(7(10)11)6(5)9(12)13/h1-3H,(H,10,11)",VCHSXYHBMFKRBK-UHFFFAOYSA-N,OC(=O)C1=C(C(=CC=C1)Cl)[N+]([O-])=O,-2.63,0.0,1,G1
C-430,hydralazine;  1-hydrazinophthalazine,"InChI=1S/C8H8N4/c9-11-8-7-4-2-1-3-6(7)5-10-12-8/h1-5H,9H2,(H,11,12)",RPTUSVTUFVMDQK-UHFFFAOYSA-N,NNC1=NN=CC2=C1C=CC=C2,-2.6,0.0,1,G1
C-433,11-alpha-hydroxyprogesterone,"InChI=1S/C21H30O3/c1-12(22)16-6-7-17-15-5-4-13-10-14(23)8-9-20(13,2)19(15)18(24)11-21(16,17)3/h10,15-19,24H,4-9,11H2,1-3H3",BFZHCUBIASXHPK-UHFFFAOYSA-N,CC(=O)C1CCC2C3CCC4=CC(=O)CCC4(C)C3C(O)CC12C,-3.82,0.0,1,G1
C-435,barban;  (3-chlorophenyl)carbamic acid 4-chloro-2-butynyl ester,"InChI=1S/C11H9Cl2NO2/c12-6-1-2-7-16-11(15)14-10-5-3-4-9(13)8-10/h3-5,8H,6-7H2,(H,14,15)",MCOQHIWZJUDQIC-UHFFFAOYSA-N,ClCC#CCOC(=O)NC1=CC(=CC=C1)Cl,-4.24,0.06499999999999995,2,G3
C-436,"3,4,5-trichloroveratrole;  1,2-dimethoxy-3,4,5-trichlorobenzene","InChI=1S/C8H7Cl3O2/c1-12-5-3-4(9)6(10)7(11)8(5)13-2/h3H,1-2H3",VKNITLPENCJQOP-UHFFFAOYSA-N,COC1=C(OC)C(=C(Cl)C(=C1)Cl)Cl,-4.37,0.0,1,G1
C-438,"busulfan;  busulphan;  1,4-di(methylsulfonyloxy)butane","InChI=1S/C6H14O6S2/c1-13(7,8)11-5-3-4-6-12-14(2,9)10/h3-6H2,1-2H3",COVZYZSDYWQREU-UHFFFAOYSA-N,C[S](=O)(=O)OCCCCO[S](C)(=O)=O,-2.27,0.0,1,G1
C-444,procyclidine,"InChI=1S/C19H29NO/c21-19(17-9-3-1-4-10-17,18-11-5-2-6-12-18)13-16-20-14-7-8-15-20/h1,3-4,9-10,18,21H,2,5-8,11-16H2",WYDUSKDSKCASEF-UHFFFAOYSA-N,OC(CCN1CCCC1)(C2CCCCC2)C3=CC=CC=C3,-4.7,0.0,1,G1
C-448,cimetidine,"InChI=1S/C10H16N6S/c1-8-9(16-7-15-8)5-17-4-3-13-10(12-2)14-6-11/h7H,3-5H2,1-2H3,(H,15,16)(H2,12,13,14)",AQIXAKUUQRKLND-UHFFFAOYSA-N,CNC(NCCSCC1=C(C)[NH]C=N1)=NC#N,-1.43,0.14676133308500874,3,G5
C-451,carbofuran,"InChI=1S/C12H15NO3/c1-12(2)7-8-5-4-6-9(10(8)16-12)15-11(14)13-3/h4-6H,7H2,1-3H3,(H,13,14)",DUEPRVBVGDRKAG-UHFFFAOYSA-N,CNC(=O)OC1=C2OC(C)(C)CC2=CC=C1,-2.42,0.6600899559908482,4,G4
C-452,mcpa-thioethyl,"InChI=1S/C11H13ClO2S/c1-3-15-11(13)7-14-10-5-4-9(12)6-8(10)2/h4-6H,3,7H2,1-2H3",AZFKQCNGMSSWDS-UHFFFAOYSA-N,CCSC(=O)COC1=C(C)C=C(Cl)C=C1,-5.03,0.0,1,G1
C-460,2-mercaptobenzothiazole,"InChI=1S/C7H5NS2/c9-7-8-5-3-1-2-4-6(5)10-7/h1-4H,(H,8,9)",YXIWHUQXZSMYRE-UHFFFAOYSA-N,SC1=NC2=C(S1)C=CC=C2,-3.15,0.015000000000000124,2,G3
C-461,propyzamide;  pronamid;  kerb,"InChI=1S/C12H11Cl2NO/c1-4-12(2,3)15-11(16)8-5-9(13)7-10(14)6-8/h1,5-7H,2-3H3,(H,15,16)",PHNUZKMIPFFYSO-UHFFFAOYSA-N,CC(C)(NC(=O)C1=CC(=CC(=C1)Cl)Cl)C#C,-4.23,0.0,1,G1
C-462,"2,7-dichloronaphthalene",InChI=1S/C10H6Cl2/c11-9-3-1-7-2-4-10(12)6-8(7)5-9/h1-6H,DWBQZSYTSNYEEJ-UHFFFAOYSA-N,ClC1=CC2=C(C=C1)C=CC(=C2)Cl,-5.92,0.0,1,G1
C-463,trihexyphenidyl,"InChI=1S/C20H31NO/c22-20(18-10-4-1-5-11-18,19-12-6-2-7-13-19)14-17-21-15-8-3-9-16-21/h1,4-5,10-11,19,22H,2-3,6-9,12-17H2",HWHLPVGTWGOCJO-UHFFFAOYSA-N,OC(CCN1CCCCC1)(C2CCCCC2)C3=CC=CC=C3,-5.2,0.0,1,G1
C-466,1-naphthoic  acid,"InChI=1S/C11H8O2/c12-11(13)10-7-3-5-8-4-1-2-6-9(8)10/h1-7H,(H,12,13)",LNETULKMXZVUST-UHFFFAOYSA-N,OC(=O)C1=CC=CC2=CC=CC=C12,-3.3,0.0,1,G1
C-468,"2,3-dichloronaphthalene",InChI=1S/C10H6Cl2/c11-9-5-7-3-1-2-4-8(7)6-10(9)12/h1-6H,SKGXUFZRYNGFJS-UHFFFAOYSA-N,ClC1=CC2=C(C=CC=C2)C=C1Cl,-5.36,0.49849999999999994,2,G3
C-471,"1,7-dichloronaphthalene",InChI=1S/C10H6Cl2/c11-8-5-4-7-2-1-3-10(12)9(7)6-8/h1-6H,VQBIYCQGHAHVPN-UHFFFAOYSA-N,ClC1=CC2=C(C=CC=C2Cl)C=C1,-5.92,0.0,1,G1
C-473,"1,2-dichloronaphthalene",InChI=1S/C10H6Cl2/c11-9-6-5-7-3-1-2-4-8(7)10(9)12/h1-6H,MOXLHAPKZWTHEX-UHFFFAOYSA-N,ClC1=C(Cl)C2=C(C=CC=C2)C=C1,-6.16,0.0,1,G1
C-474,2-nitroso-1-naphthol;  1-hydroxy-2-nitrosonaphthalene,"InChI=1S/C10H7NO2/c12-10-8-4-2-1-3-7(8)5-6-9(10)11-13/h1-6,12H",SYUYTOYKQOAVDW-UHFFFAOYSA-N,OC1=C(C=CC2=C1C=CC=C2)N=O,-2.54,0.0,1,G1
C-477,"1,5-dichloronaphthalene",InChI=1S/C10H6Cl2/c11-9-5-1-3-7-8(9)4-2-6-10(7)12/h1-6H,ZBQZXTBAGBTUAD-UHFFFAOYSA-N,ClC1=CC=CC2=C1C=CC=C2Cl,-5.7,0.008000000000000007,2,G3
C-482,"1,8-dichloronaphthalene",InChI=1S/C10H6Cl2/c11-8-5-1-3-7-4-2-6-9(12)10(7)8/h1-6H,ADRYPAGQXFMVFP-UHFFFAOYSA-N,ClC1=CC=CC2=C1C(=CC=C2)Cl,-5.8,0.0,1,G1
C-483,2-naphthyl  isothiocyanate; 2-isothiocyanatonaphthalene,InChI=1S/C11H7NS/c13-8-12-11-6-5-9-3-1-2-4-10(9)7-11/h1-7H,RTMXPNYHPHIDHX-UHFFFAOYSA-N,S=C=NC1=CC2=CC=CC=C2C=C1,-4.44,0.0,1,G1
C-486,corticosterone,"InChI=1S/C21H30O4/c1-20-8-7-13(23)9-12(20)3-4-14-15-5-6-16(18(25)11-22)21(15,2)10-17(24)19(14)20/h9,14-17,19,22,24H,3-8,10-11H2,1-2H3",OMFXVFTZEKFJBZ-UHFFFAOYSA-N,CC12CC(O)C3C(CCC4=CC(=O)CCC34C)C1CCC2C(=O)CO,-3.24,0.0,1,G1
C-487,lenacil,"InChI=1S/C13H18N2O2/c16-12-10-7-4-8-11(10)14-13(17)15(12)9-5-2-1-3-6-9/h9H,1-8H2,(H,14,17)",ZTMKADLOSYKWCA-UHFFFAOYSA-N,O=C1NC2=C(CCC2)C(=O)N1C3CCCCC3,-4.59,0.0,1,G1
C-490,bendiocarb,"InChI=1S/C11H13NO4/c1-11(2)15-8-6-4-5-7(9(8)16-11)14-10(13)12-3/h4-6H,1-3H3,(H,12,13)",XEGGRYVFLWGFHI-UHFFFAOYSA-N,CNC(=O)OC1=C2OC(C)(C)OC2=CC=C1,-2.93,0.40849999999999986,2,G3
C-491,"2,4,6-tribromophenol","InChI=1S/C6H3Br3O/c7-3-1-4(8)6(10)5(9)2-3/h1-2,10H",BSWWXRFVMJHFBN-UHFFFAOYSA-N,OC1=C(Br)C=C(Br)C=C1Br,-3.73,0.028000000000000025,2,G3
C-492,"2,4,5-trichlorophenoxyacetic  acid","InChI=1S/C8H5Cl3O3/c9-4-1-6(11)7(2-5(4)10)14-3-8(12)13/h1-2H,3H2,(H,12,13)",SMYMJHWAQXWPDB-UHFFFAOYSA-N,OC(=O)COC1=C(Cl)C=C(Cl)C(=C1)Cl,-2.98,0.010000000000000009,2,G3
C-494,"2,3,4-trichlorophenoxyacetic  acid","InChI=1S/C8H5Cl3O3/c9-4-1-2-5(8(11)7(4)10)14-3-6(12)13/h1-2H,3H2,(H,12,13)",QMSFHWZMMPPKIR-UHFFFAOYSA-N,OC(=O)COC1=C(Cl)C(=C(Cl)C=C1)Cl,-3.1,0.0,1,G1
C-496,"bromacil;  3-sec-butyl-5-bromo-6-methylpyrimidine-2,4-dione","InChI=1S/C9H13BrN2O2/c1-4-5(2)12-8(13)7(10)6(3)11-9(12)14/h5H,4H2,1-3H3,(H,11,14)",CTSLUCNDVMMDHG-UHFFFAOYSA-N,CCC(C)N1C(=O)NC(=C(Br)C1=O)C,-2.5,0.011500000000000066,2,G3
C-499,lovastatin,"InChI=1S/C24H36O5/c1-5-15(3)24(27)29-21-11-14(2)10-17-7-6-16(4)20(23(17)21)9-8-19-12-18(25)13-22(26)28-19/h6-7,10,14-16,18-21,23,25H,5,8-9,11-13H2,1-4H3",PCZOHLXUXFIOCF-UHFFFAOYSA-N,CCC(C)C(=O)OC1CC(C)C=C2C=CC(C)C(CCC3CC(O)CC(=O)O3)C12,-6.01,0.0,1,G1
C-501,hydrocortisone,"InChI=1S/C21H30O5/c1-19-7-5-13(23)9-12(19)3-4-14-15-6-8-21(26,17(25)11-22)20(15,2)10-16(24)18(14)19/h9,14-16,18,22,24,26H,3-8,10-11H2,1-2H3",JYGXADMDTFJGBT-UHFFFAOYSA-N,CC12CCC(=O)C=C1CCC3C4CCC(O)(C(=O)CO)C4(C)CC(O)C23,-3.03,0.048989794855663425,3,G5
C-508,nadolol,"InChI=1S/C17H27NO4/c1-17(2,3)18-9-12(19)10-22-16-6-4-5-11-7-14(20)15(21)8-13(11)16/h4-6,12,14-15,18-21H,7-10H2,1-3H3",VWPOSFSPZNDTMJ-UHFFFAOYSA-N,CC(C)(C)NCC(O)COC1=CC=CC2=C1CC(O)C(O)C2,-1.01,0.0,1,G1
C-510,"3,5-dinitrobenzoic  acid","InChI=1S/C7H4N2O6/c10-7(11)4-1-5(8(12)13)3-6(2-4)9(14)15/h1-3H,(H,10,11)",VYWYYJYRVSBHJQ-UHFFFAOYSA-N,OC(=O)C1=CC(=CC(=C1)[N+]([O-])=O)[N+]([O-])=O,-2.21,0.007000000000000117,2,G3
C-511,methyl  (phenylsulfonyl)acetate;  2-(phenylsulfonyl)acetic acid methyl ester,"InChI=1S/C9H10O4S/c1-13-9(10)7-14(11,12)8-5-3-2-4-6-8/h2-6H,7H2,1H3",NLEAIFBNKPYTGN-UHFFFAOYSA-N,COC(=O)C[S](=O)(=O)C1=CC=CC=C1,-1.14,0.0,1,G1
C-517,"1,3,5-trinitrobenzene",InChI=1S/C6H3N3O6/c10-7(11)4-1-5(8(12)13)3-6(2-4)9(14)15/h1-3H,UATJOMSPNYCXIX-UHFFFAOYSA-N,[O-][N+](=O)C1=CC(=CC(=C1)[N+]([O-])=O)[N+]([O-])=O,-2.89,0.0,1,G1
C-518,estriol,"InChI=1S/C18H24O3/c1-18-7-6-13-12-5-3-11(19)8-10(12)2-4-14(13)15(18)9-16(20)17(18)21/h3,5,8,13-17,19-21H,2,4,6-7,9H2,1H3",PROQIPRRNZUXQM-UHFFFAOYSA-N,CC12CCC3C(CCC4=CC(=CC=C34)O)C1CC(O)C2O,-4.95,0.0,1,G1
C-521,methyl  1-(phenylsulfonyl)cyclopropane-1-carboxylate,"InChI=1S/C11H12O4S/c1-15-10(12)11(7-8-11)16(13,14)9-5-3-2-4-6-9/h2-6H,7-8H2,1H3",OACLWBSJZSLACO-UHFFFAOYSA-N,COC(=O)C1(CC1)[S](=O)(=O)C2=CC=CC=C2,-2.26,0.0,1,G1
C-522,antipyrine; phenazone,"InChI=1S/C11H12N2O/c1-9-8-11(14)13(12(9)2)10-6-4-3-5-7-10/h3-8H,1-2H3",VEQOALNAAJBPNY-UHFFFAOYSA-N,CN1N(C(=O)C=C1C)C2=CC=CC=C2,0.35,0.5361332753046475,3,G4
C-523,sulfacetamide;  n1-(acetyl)sulfanilamide,"InChI=1S/C8H10N2O3S/c1-6(11)10-14(12,13)8-4-2-7(9)3-5-8/h2-5H,9H2,1H3,(H,10,11)",SKIVFJLNDNKQPD-UHFFFAOYSA-N,CC(=O)N[S](=O)(=O)C1=CC=C(N)C=C1,-1.41,0.11953614051360739,3,G5
C-525,diethofencarb,"InChI=1S/C14H21NO4/c1-5-17-12-8-7-11(9-13(12)18-6-2)15-14(16)19-10(3)4/h7-10H,5-6H2,1-4H3,(H,15,16)",LNJNFVJKDJYTEU-UHFFFAOYSA-N,CCOC1=C(OCC)C=C(NC(=O)OC(C)C)C=C1,-4.0,0.0,1,G1
C-527,pindolol,"InChI=1S/C14H20N2O2/c1-10(2)16-8-11(17)9-18-14-5-3-4-13-12(14)6-7-15-13/h3-7,10-11,15-17H,8-9H2,1-2H3",JZQKKSLKJUAGIC-UHFFFAOYSA-N,CC(C)NCC(O)COC1=CC=CC2=C1C=C[NH]2,-3.7,0.04499999999999993,2,G3
C-528,"2-(2,4,5-trichlorophenoxy)propanoic acid;  silvex;  fenoprop","InChI=1S/C9H7Cl3O3/c1-4(9(13)14)15-8-3-6(11)5(10)2-7(8)12/h2-4H,1H3,(H,13,14)",ZLSWBLPERHFHIS-UHFFFAOYSA-N,CC(OC1=CC(=C(Cl)C=C1Cl)Cl)C(O)=O,-3.58,0.0,1,G1
C-531,2-naphthoxyacetic acid,"InChI=1S/C12H10O3/c13-12(14)8-15-11-6-5-9-3-1-2-4-10(9)7-11/h1-7H,8H2,(H,13,14)",RZCJYMOBWVJQGV-UHFFFAOYSA-N,OC(=O)COC1=CC2=C(C=CC=C2)C=C1,-3.36,0.0,1,G1
C-532,l-tryptophan,"InChI=1S/C11H12N2O2/c12-9(11(14)15)5-7-6-13-10-4-2-1-3-8(7)10/h1-4,6,9,13H,5,12H2,(H,14,15)",QIVBCDIJIAJPQS-UHFFFAOYSA-N,NC(CC1=C[NH]C2=C1C=CC=C2)C(O)=O,-1.18,0.0,1,G1
C-533,caffeine,"InChI=1S/C8H10N4O2/c1-10-4-9-6-5(10)7(13)12(3)8(14)11(6)2/h4H,1-3H3",RYYVLZVUVIJVGH-UHFFFAOYSA-N,C[N]1C=NC2=C1C(=O)N(C)C(=O)N2C,-0.91,0.03886157771143915,3,G5
C-534,"oxamniquine;  6-hydroxymethyl-2-isopropylaminomethyl-7-nitro-1,2,3,4-tetrahydroquinoline","InChI=1S/C14H21N3O3/c1-9(2)15-7-12-4-3-10-5-11(8-18)14(17(19)20)6-13(10)16-12/h5-6,9,12,15-16,18H,3-4,7-8H2,1-2H3",XCGYUJZMCCFSRP-UHFFFAOYSA-N,CC(C)NCC1CCC2=C(N1)C=C(C(=C2)CO)[N+]([O-])=O,-2.97,0.0,1,G1
C-535,"4,5,6,7-tetrachlorophthalide",InChI=1S/C8H2Cl4O2/c9-4-2-1-14-8(13)3(2)5(10)7(12)6(4)11/h1H2,NMWKWBPNKPGATC-UHFFFAOYSA-N,ClC1=C(Cl)C2=C(C(=O)OC2)C(=C1Cl)Cl,-5.04,0.0,1,G1
C-541,antu;  1-naphthylthiourea,"InChI=1S/C11H10N2S/c12-11(14)13-10-7-3-5-8-4-1-2-6-9(8)10/h1-7H,(H3,12,13,14)",PIVQQUNOTICCSA-UHFFFAOYSA-N,NC(=S)NC1=CC=CC2=C1C=CC=C2,-2.53,0.0,1,G1
C-542,ethinyl  estradiol,"InChI=1S/C20H24O2/c1-3-20(22)11-9-18-17-6-4-13-12-14(21)5-7-15(13)16(17)8-10-19(18,20)2/h1,5,7,12,16-18,21-22H,4,6,8-11H2,2H3",BFPYWIDHMRZLRN-UHFFFAOYSA-N,CC12CCC3C(CCC4=CC(=CC=C34)O)C1CCC2(O)C#C,-4.47,0.08499999999999996,2,G3
C-545,mephobarbital;  1-methylphenobarbital;  5-ethyl-1-methyl-5-phenylbarbituric  acid,"InChI=1S/C13H14N2O3/c1-3-13(9-7-5-4-6-8-9)10(16)14-12(18)15(2)11(13)17/h4-8H,3H2,1-2H3,(H,14,16,18)",ALARQZQTBTVLJV-UHFFFAOYSA-N,CCC1(C(=O)NC(=O)N(C)C1=O)C2=CC=CC=C2,-3.68,0.0,1,G1
C-548,"1,3,7-trichloronaphthalene",InChI=1S/C10H5Cl3/c11-7-2-1-6-3-8(12)5-10(13)9(6)4-7/h1-5H,CFEUGIGSIREATC-UHFFFAOYSA-N,ClC1=CC2=C(C=C1)C=C(Cl)C=C2Cl,-6.55,0.0,1,G1