ID,Name,InChI,InChIKey,SMILES,Solubility,SD,Occurrences,Group
E-1007,Noscapine,"InChI=1S/C22H23NO7/c1-23-8-7-11-9-14-20(29-10-28-14)21(27-4)15(11)17(23)18-12-5-6-13(25-2)19(26-3)16(12)22(24)30-18/h5-6,9,17-18H,7-8,10H2,1-4H3",AKNNEGZIBPJZJG-UHFFFAOYSA-N,COc2ccc1C(OC(=O)c1c2OC)C4N(C)CCc5cc3OCOc3c(OC)c45,-3.14,0.41645,2,G3
E-1008,Doxycycline,"InChI=1S/C22H24N2O8/c1-7-8-5-4-6-9(25)11(8)16(26)12-10(7)17(27)14-15(24(2)3)18(28)13(21(23)31)20(30)22(14,32)19(12)29/h4-7,10,14-15,17,25,27-29,32H,1-3H3,(H2,23,31)",JBIWCJUYHHGXTC-UHFFFAOYSA-N,CC3C2C(O)C1C(N(C)C)C(=C(C(N)=O)C(=O)C1(O)C(=C2C(=O)c4c(O)cccc34)O)O,-2.87,0.0,1,G1
E-1009,Testosterone_Propionate,"InChI=1S/C22H32O3/c1-4-20(24)25-19-8-7-17-16-6-5-14-13-15(23)9-11-21(14,2)18(16)10-12-22(17,19)3/h13,16-19H,4-12H2,1-3H3",PDMMFKSKQVNJMI-UHFFFAOYSA-N,O=C(OC(C(C(C(C(C(C(=CC(=O)C1)C2)(C1)C)C3)C2)C4)(C3)C)C4)CC,-5.37,0.0,1,G1
E-1011,Phenothrin,"InChI=1S/C23H26O3/c1-16(2)13-20-21(23(20,3)4)22(24)25-15-17-9-8-12-19(14-17)26-18-10-6-5-7-11-18/h5-14,20-21H,15H2,1-4H3",SBNFWQZLDJGRLK-UHFFFAOYSA-N,CC(C)=CC3C(C(=O)OCc2cccc(Oc1ccccc1)c2)C3(C)C,-5.24,1.15895,2,G2
E-1012,Delmadinone_Acetate,"InChI=1S/C23H27ClO4/c1-13(25)23(28-14(2)26)10-7-18-16-12-20(24)19-11-15(27)5-8-21(19,3)17(16)6-9-22(18,23)4/h5,8,11-12,16-18H,6-7,9-10H2,1-4H3",CGBCCZZJVKUAMX-UHFFFAOYSA-N,O=C1C=C2C(Cl)=CC3C4CCC(C(=O)C)(OC(=O)C)C4(C)CCC3C2(C)C=C1,-4.95,0.0,1,G1
E-1013,Thiopropazate,"InChI=1S/C23H28ClN3O2S/c1-18(28)29-16-15-26-13-11-25(12-14-26)9-4-10-27-20-5-2-3-6-22(20)30-23-8-7-19(24)17-21(23)27/h2-3,5-8,17H,4,9-16H2,1H3",AIUHRQHVWSUTGJ-UHFFFAOYSA-N,CC(=O)OCCN4CCN(CCCN2c1ccccc1Sc3ccc(Cl)cc23)CC4,-4.7,0.0,1,G1
E-1014,Prednisolone-21-Trimethylacetate,"InChI=1S/C26H36O6/c1-23(2,3)22(30)32-14-20(29)26(31)11-9-18-17-7-6-15-12-16(27)8-10-24(15,4)21(17)19(28)13-25(18,26)5/h8,10,12,17-19,21,28,31H,6-7,9,11,13-14H2,1-5H3",PHEOVVDXTQVHAZ-UHFFFAOYSA-N,O=C1C=C2CCC3C4CCC(O)(C(=O)COC(=O)C(C)(C)C)C4(C)CC(O)C3C2(C)C=C1,-4.58,0.0,1,G1
E-1015,Glycocholic_Acid,"InChI=1S/C26H43NO6/c1-14(4-7-22(31)27-13-23(32)33)17-5-6-18-24-19(12-21(30)26(17,18)3)25(2)9-8-16(28)10-15(25)11-20(24)29/h14-21,24,28-30H,4-13H2,1-3H3,(H,27,31)(H,32,33)",RFDAIACWWDREDC-UHFFFAOYSA-N,O=C(NCC(=O)O)CCC(C(C(C(C(C(C(C(C1)CC(O)C2)(C2)C)C3)C1O)C4)(C3O)C)C4)C,-5.15,0.0,1,G1
E-1016,Rolitetracycline,"InChI=1S/C21H23NO6/c1-20(27)11-7-5-4-6-10(11)18(25)16-12(20)8-13-17(22(2)3)14(23)9-15(24)21(13,28)19(16)26/h4-7,9,12-13,17,23,26-28H,8H2,1-3H3",QMSHUERTGDUVNN-UHFFFAOYSA-N,c12C(=O)C3=C(O)C4(O)C(=O)C=C(O)C(N(C)C)C4CC3C(O)(C)c1cccc2,-1.42,0.0,1,G1
E-1017,Hydrocortisone_Tebutate,"InChI=1S/C27H40O6/c1-24(2,3)14-22(31)33-15-21(30)27(32)11-9-19-18-7-6-16-12-17(28)8-10-25(16,4)23(18)20(29)13-26(19,27)5/h12,18-20,23,29,32H,6-11,13-15H2,1-5H3",FNFPHNZQOKBKHN-UHFFFAOYSA-N,C1C(=O)C=C2CCC3C4CCC(O)(C(=O)COC(=O)CC(C)(C)C)C4(C)CC(O)C3C2(C)C1,-5.51,0.0,1,G1
E-1018,Natamycin,"InChI=1S/C33H47NO13/c1-18-10-8-6-4-3-5-7-9-11-21(45-32-30(39)28(34)29(38)19(2)44-32)15-25-27(31(40)41)22(36)17-33(42,47-25)16-20(35)14-24-23(46-24)12-13-26(37)43-18/h3-9,11-13,18-25,27-30,32,35-36,38-39,42H,10,14-17,34H2,1-2H3,(H,40,41)",NCXMLFZGDNKEPB-UHFFFAOYSA-N,O1C(C)C(O)C(N)C(O)C1OC2C=CC=CC=CC=CCC(C)OC(=O)C=CC(O3)C3CC(O)CC4(O)OC(C(C(=O)O)C(O)C4)C2,-3.21,0.0,1,G1
E-1019,3-methylpentane,"InChI=1S/C6H14/c1-4-6(3)5-2/h6H,4-5H2,1-3H3",PFEOZHBOMNWTJB-UHFFFAOYSA-N,CCC(C)CC,-3.68,0.0,1,G1
E-1020,"2,4-dimethylpentane","InChI=1S/C7H16/c1-6(2)5-7(3)4/h6-7H,5H2,1-4H3",BZHMBWZPUJHVEE-UHFFFAOYSA-N,CC(C)CC(C)C,-4.26,0.0,1,G1
E-1021,1-pentene,"InChI=1S/C5H10/c1-3-5-4-2/h3H,1,4-5H2,2H3",YWAKXRMUMFPDSH-UHFFFAOYSA-N,CCCC=C,-2.68,0.0,1,G1
E-1022,cyclohexene,"InChI=1S/C6H10/c1-2-4-6-5-3-1/h1-2H,3-6H2",HGCIXCUEYOPUTN-UHFFFAOYSA-N,C1CC=CCC1,-2.59,0.0,1,G1
E-1023,"1,4-pentadiene","InChI=1S/C5H8/c1-3-5-4-2/h3-4H,1-2,5H2",QYZLKGVUSQXAMU-UHFFFAOYSA-N,C=CCC=C,-2.09,0.0,1,G1
E-1025,1-octyne,"InChI=1S/C8H14/c1-3-5-7-8-6-4-2/h1H,4-8H2,2H3",UMIPWJGWASORKV-UHFFFAOYSA-N,CCCCCCC#C,-3.66,0.0,1,G1
E-1027,"1,3,5-trimethylbenzene","InChI=1S/C9H12/c1-7-4-8(2)6-9(3)5-7/h4-6H,1-3H3",AUHZEENZYGFFBQ-UHFFFAOYSA-N,c1c(C)cc(C)cc1C,-3.4,0.0,1,G1
E-1028,indane,"InChI=1S/C9H10/c1-2-5-9-7-3-6-8(9)4-1/h1-2,4-5H,3,6-7H2",PQNFLJBBNBOBRQ-UHFFFAOYSA-N,c(c(ccc1)CC2)(c1)C2,-3.04,0.0050000000000001155,2,G3
E-1029,isobutylbenzene,"InChI=1S/C10H14/c1-9(2)8-10-6-4-3-5-7-10/h3-7,9H,8H2,1-2H3",KXUHSQYYJYAXGZ-UHFFFAOYSA-N,c1ccccc1CC(C)C,-4.12,0.0,1,G1
E-1031,bibenzyl,"InChI=1S/C14H14/c1-3-7-13(8-4-1)11-12-14-9-5-2-6-10-14/h1-10H,11-12H2",QWUWMCYKGHVNAV-UHFFFAOYSA-N,c1ccccc1CCc2ccccc2,-4.62,0.0,1,G1
E-1032,1-ethylnaphthalene,"InChI=1S/C12H12/c1-2-10-7-5-8-11-6-3-4-9-12(10)11/h3-9H,2H2,1H3",ZMXIYERNXPIYFR-UHFFFAOYSA-N,c1ccc2ccccc2c1CC,-4.17,0.0,1,G1
E-1033,"1,3-dimethylnaphthalene","InChI=1S/C12H12/c1-9-7-10(2)12-6-4-3-5-11(12)8-9/h3-8H,1-2H3",QHJMFSMPSZREIF-UHFFFAOYSA-N,c1c(C)cc2ccccc2c1C,-4.29,0.0,1,G1
E-1035,"9,10-dimethylanthracene","InChI=1S/C16H14/c1-11-13-7-3-5-9-15(13)12(2)16-10-6-4-8-14(11)16/h3-10H,1-2H3",JTGMTYWYUZDRBK-UHFFFAOYSA-N,Cc2c1ccccc1c(C)c3ccccc23,-6.57,0.0,1,G1
E-1036,naphthacene,InChI=1S/C18H12/c1-2-6-14-10-18-12-16-8-4-3-7-15(16)11-17(18)9-13(14)5-1/h1-12H,IFLREYGFSNHWGE-UHFFFAOYSA-N,c(c(cc(c1ccc2)c2)cc(c3ccc4)c4)(c1)c3,-8.6,0.22226110770892862,3,G5
E-1037,chrysene,InChI=1S/C18H12/c1-3-7-15-13(5-1)9-11-18-16-8-4-2-6-14(16)10-12-17(15)18/h1-12H,WDECIBYCCFPHNR-UHFFFAOYSA-N,c1ccc2ccc3c4ccccc4ccc3c2c1,-8.06,0.0,1,G1
E-1038,"1,7-phenantroline",InChI=1S/C12H8N2/c1-2-4-10-9(3-1)5-6-11-12(10)14-8-7-13-11/h1-8H,YUFRAQHYKKPYLH-UHFFFAOYSA-N,c1ccc2ccc3nccnc3c2c1,-2.68,0.0,1,G1
E-1039,6-aminochrysene,"InChI=1S/C18H13N/c19-18-11-17-13-6-2-1-5-12(13)9-10-15(17)14-7-3-4-8-16(14)18/h1-11H,19H2",KIVUHCNVDWYUNP-UHFFFAOYSA-N,Nc3cc2c1ccccc1ccc2c4ccccc34,-6.2,0.0,1,G1
E-1041,dibromomethane,InChI=1S/CH2Br2/c2-1-3/h1H2,FJBFPHVGVWTDIP-UHFFFAOYSA-N,BrCBr,-1.17,0.0,1,G1
E-1045,1-chloropropane,"InChI=1S/C3H7Cl/c1-2-3-4/h2-3H2,1H3",SNMVRZFUUCLYTO-UHFFFAOYSA-N,CCCCl,-1.47,0.0,1,G1
E-1046,2-iodopropane,"InChI=1S/C3H7I/c1-3(2)4/h3H,1-2H3",FMKOJHQHASLBPH-UHFFFAOYSA-N,CC(I)C,-2.09,0.055500000000000105,2,G3
E-1047,"1,2-dibromopropane","InChI=1S/C3H6Br2/c1-3(5)2-4/h3H,2H2,1H3",XFNJYAKDBJUJAJ-UHFFFAOYSA-N,BrCC(Br)C,-2.15,0.0,1,G1
E-1050,1-bromo-3-methylbutane,"InChI=1S/C5H11Br/c1-5(2)3-4-6/h5H,3-4H2,1-2H3",YXZFFTJAHVMMLF-UHFFFAOYSA-N,BrCCC(C)C,-2.89,0.0,1,G1
E-1051,1-bromooctane,"InChI=1S/C8H17Br/c1-2-3-4-5-6-7-8-9/h2-8H2,1H3",VMKOFRJSULQZRM-UHFFFAOYSA-N,CCCCCCCCBr,-5.06,0.0,1,G1
E-1052,1-bromoheptane,"InChI=1S/C7H15Br/c1-2-3-4-5-6-7-8/h2-7H2,1H3",LSXKDWGTSHCFPP-UHFFFAOYSA-N,CCCCCCCBr,-4.43,0.0,1,G1
E-1053,"1,2-dibromoethylene",InChI=1S/C2H2Br2/c3-1-2-4/h1-2H,UWTUEMKLYAGTNQ-UHFFFAOYSA-N,BrC=CBr,-1.32,0.0,1,G1
E-1054,heptachlor,"InChI=1S/C10H5Cl7/c11-4-2-1-3-5(4)9(15)7(13)6(12)8(3,14)10(9,16)17/h1-5H",FRCCEHPWNOQAEU-UHFFFAOYSA-N,ClC1C=CC2C1C3(Cl)C(=C(Cl)C2(Cl)C3(Cl)Cl)Cl,-6.32,0.43543082114154463,3,G5
E-1055,hexachlorobutadiene,InChI=1S/C4Cl6/c5-1(3(7)8)2(6)4(9)10,RWNKSTSCBHKHTB-UHFFFAOYSA-N,ClC(Cl)=C(Cl)C(Cl)=C(Cl)Cl,-4.91,0.0,1,G1
E-1056,bromobenzene,InChI=1S/C6H5Br/c7-6-4-2-1-3-5-6/h1-5H,QARVLSVVCXYDNA-UHFFFAOYSA-N,c1ccccc1Br,-2.55,0.0,1,G1
E-1058,"1,3-dibromobenzene",InChI=1S/C6H4Br2/c7-5-2-1-3-6(8)4-5/h1-4H,JSRLURSZEMLAFO-UHFFFAOYSA-N,c1ccc(Br)cc1Br,-3.54,0.0,1,G1
E-1060,pentachlorobenzene,InChI=1S/C6HCl5/c7-2-1-3(8)5(10)6(11)4(2)9/h1H,CEOCDNVZRAIOQZ-UHFFFAOYSA-N,c1c(Cl)c(Cl)c(Cl)c(Cl)c1Cl,-5.65,0.22578800283058023,3,G5
E-1061,m-difluorobenzene,InChI=1S/C6H4F2/c7-5-2-1-3-6(8)4-5/h1-4H,UEMGWPRHOOEKTA-UHFFFAOYSA-N,c1ccc(F)cc1F,-2.0,0.0,1,G1
E-1062,4-chlorobiphenyl,InChI=1S/C12H9Cl/c13-12-8-6-11(7-9-12)10-4-2-1-3-5-10/h1-9H,FPWNLURCHDRMHC-UHFFFAOYSA-N,c1ccccc1c2ccc(Cl)cc2,-5.2,0.02989239962859374,3,G5
E-1063,"2,4'-PCB",InChI=1S/C12H8Cl2/c13-10-7-5-9(6-8-10)11-3-1-2-4-12(11)14/h1-8H,UFNIBRDIUNVOMX-UHFFFAOYSA-N,c1cc(Cl)ccc1c2c(Cl)cccc2,-5.28,0.09273618495495697,3,G5
E-1064,"2,2',5-PCB",InChI=1S/C12H7Cl3/c13-8-5-6-12(15)10(7-8)9-3-1-2-4-11(9)14/h1-7H,DCMURXAZTZQAFB-UHFFFAOYSA-N,c1cccc(Cl)c1c2c(Cl)ccc(Cl)c2,-6.02,0.10499999999999998,2,G3
E-1065,"2',3,4-PCB",InChI=1S/C12H7Cl3/c13-10-4-2-1-3-9(10)8-5-6-11(14)12(15)7-8/h1-7H,RIMXLXBUOQMDHV-UHFFFAOYSA-N,c1cc(Cl)c(Cl)cc1c2c(Cl)cccc2,-6.29,0.10999999999999988,2,G3
E-1066,"2,3,4,5-PCB",InChI=1S/C12H6Cl4/c13-9-6-8(7-4-2-1-3-5-7)10(14)12(16)11(9)15/h1-6H,HLQDGCWIOSOMDP-UHFFFAOYSA-N,c1ccccc1c2c(Cl)c(Cl)c(Cl)c(Cl)c2,-7.16,0.21594359345800365,3,G5
E-1067,"2,2',5,6'-PCB",InChI=1S/C12H6Cl4/c13-7-4-5-9(14)8(6-7)12-10(15)2-1-3-11(12)16/h1-6H,SFTUSTXGTCCSHX-UHFFFAOYSA-N,c1c(Cl)ccc(Cl)c1c2c(Cl)cccc2Cl,-6.8,0.006050000000000111,2,G3
E-1068,"2,2',3,4,5'-PCB",InChI=1S/C12H5Cl5/c13-6-1-3-9(14)8(5-6)7-2-4-10(15)12(17)11(7)16/h1-5H,OPKYDBFRKPQCBS-UHFFFAOYSA-N,c1c(Cl)ccc(Cl)c1c2c(Cl)c(Cl)c(Cl)cc2,-7.91,0.4325000000000001,2,G3
E-1069,"2,3,4,5,6-PCB",InChI=1S/C12H5Cl5/c13-8-7(6-4-2-1-3-5-6)9(14)11(16)12(17)10(8)15/h1-5H,GGMPTLAAIUQMIE-UHFFFAOYSA-N,Clc1c(Cl)c(Cl)c(Cl)c(Cl)c1c2ccccc2,-7.92,0.0,1,G1
E-1070,"2,2',3,4,5,5'-PCB",InChI=1S/C12H4Cl6/c13-5-1-2-8(14)6(3-5)7-4-9(15)11(17)12(18)10(7)16/h1-4H,UCLKLGIYGBLTSM-UHFFFAOYSA-N,c1c(Cl)ccc(Cl)c1c2c(Cl)c(Cl)c(Cl)c(Cl)c2,-7.68,0.0,1,G1
E-1073,"p,p'-DDD","InChI=1S/C14H10Cl4/c15-11-5-1-9(2-6-11)13(14(17)18)10-3-7-12(16)8-4-10/h1-8,13-14H",AHJKRLASYNVKDZ-UHFFFAOYSA-N,ClC(Cl)C(c1ccc(Cl)cc1)c2ccc(Cl)cc2,-7.2,0.3245,2,G3
E-1074,2-bromonaphthalene,InChI=1S/C10H7Br/c11-10-6-5-8-3-1-2-4-9(8)7-10/h1-7H,APSMUYYLXZULMS-UHFFFAOYSA-N,c(c(ccc1Br)ccc2)(c2)c1,-4.4,0.0,1,G1
E-1075,2-pentanol,"InChI=1S/C5H12O/c1-3-4-5(2)6/h5-6H,3-4H2,1-2H3",JYVLIDXNZAXMDK-UHFFFAOYSA-N,CCCC(O)C,-0.29,0.0,1,G1
E-1076,"2,2-dimethyl-1-propanol","InChI=1S/C5H12O/c1-5(2,3)4-6/h6H,4H2,1-3H3",KPSSIOMAKSHJJG-UHFFFAOYSA-N,OCC(C)(C)C,-0.4,0.0,1,G1
E-1077,"2,3-dimethylbutanol","InChI=1S/C6H14O/c1-5(2)6(3)4-7/h5-7H,4H2,1-3H3",SXSWMAUXEHKFGX-UHFFFAOYSA-N,CC(C)C(C)CO,-0.39,0.010000000000000009,2,G3
E-1079,"3,3-dimethyl-2-butanol","InChI=1S/C6H14O/c1-5(7)6(2,3)4/h5,7H,1-4H3",DFOXKPDFWGNLJU-UHFFFAOYSA-N,OC(C(C)(C)C)C,-0.62,0.0,1,G1
E-1080,2-heptanol,"InChI=1S/C7H16O/c1-3-4-5-6-7(2)8/h7-8H,3-6H2,1-2H3",CETWDUZRCINIHU-UHFFFAOYSA-N,OC(CCCCC)C,-1.55,0.0,1,G1
E-1081,"2,4-dimethyl-1-pentanol","InChI=1S/C7H16O/c1-6(2)4-7(3)5-8/h6-8H,4-5H2,1-3H3",OVOVDHYEOQJKMD-UHFFFAOYSA-N,OCC(C)CC(C)C,-1.6,0.0,1,G1
E-1083,"2,3,3-trimethyl-2-butanol","InChI=1S/C7H16O/c1-6(2,3)7(4,5)8/h8H,1-5H3",OKXVARYIKDXAEO-UHFFFAOYSA-N,CC(O)(C)C(C)(C)C,-0.72,0.0,1,G1
E-1085,1-decanol,"InChI=1S/C10H22O/c1-2-3-4-5-6-7-8-9-10-11/h11H,2-10H2,1H3",MWKFXSUHUHTGQN-UHFFFAOYSA-N,OCCCCCCCCCC,-3.63,0.0,1,G1
E-1086,p-methylbenzyl_alcohol,"InChI=1S/C8H10O/c1-7-2-4-8(6-9)5-3-7/h2-5,9H,6H2,1H3",KMTDMTZBNYGUNX-UHFFFAOYSA-N,OCc(ccc(c1)C)c1,-1.2,0.0,1,G1
E-1087,"1,2-benzenediol","InChI=1S/C6H6O2/c7-5-3-1-2-4-6(5)8/h1-4,7-8H",YCIMNLLNPGFGHC-UHFFFAOYSA-N,Oc(c(O)ccc1)c1,0.62,0.0,1,G1
E-1088,m-cresol,"InChI=1S/C7H8O/c1-6-3-2-4-7(8)5-6/h2-5,8H,1H3",RLSSMJSEOOYNOY-UHFFFAOYSA-N,c1ccc(C)cc1O,-0.68,0.0,1,G1
E-1089,thymol,"InChI=1S/C10H14O/c1-7(2)9-5-4-8(3)6-10(9)11/h4-7,11H,1-3H3",MGSRCZKZVOBKFT-UHFFFAOYSA-N,Oc(c(ccc1C)C(C)C)c1,-2.22,0.015000000000000124,2,G3
E-1090,2-naphthol,"InChI=1S/C10H8O/c11-10-6-5-8-3-1-2-4-9(8)7-10/h1-7,11H",JWAZRIHNYRIHIV-UHFFFAOYSA-N,Oc(ccc(c1ccc2)c2)c1,-2.28,0.0,1,G1
E-1091,butanal,"InChI=1S/C4H8O/c1-2-3-4-5/h4H,2-3H2,1H3",ZTQSAGDEMFDKMZ-UHFFFAOYSA-N,CCCC=O,-0.01,0.0,1,G1
E-1092,nonanal,"InChI=1S/C9H18O/c1-2-3-4-5-6-7-8-9-10/h9H,2-8H2,1H3",GYHFUZHODSMOHU-UHFFFAOYSA-N,O=CCCCCCCCC,-3.17,0.020000000000000018,2,G3
E-1093,furfural,InChI=1S/C5H4O2/c6-4-5-2-1-3-7-5/h1-4H,HYBBIBNJHNGZAN-UHFFFAOYSA-N,O=CC(OC=C1)=C1,-0.1,0.0,1,G1
E-1094,cyclohexanone,InChI=1S/C6H10O/c7-6-4-2-1-3-5-6/h1-5H2,JHIVVAPYMSGYDF-UHFFFAOYSA-N,O=C(CCCC1)C1,-0.6,0.0,1,G1
E-1095,2-nonanone,"InChI=1S/C9H18O/c1-3-4-5-6-7-8-9(2)10/h3-8H2,1-2H3",VKCYHJWLYTUGCC-UHFFFAOYSA-N,O=C(CCCCCCC)C,-2.58,0.0,1,G1
E-1097,benzophenone,InChI=1S/C13H10O/c14-13(11-7-3-1-4-8-11)12-9-5-2-6-10-12/h1-10H,RWCCWEUUXYIKHB-UHFFFAOYSA-N,O=C(c(cccc1)c1)c(cccc2)c2,-3.12,0.0,1,G1
E-1099,caprinic_acid,"InChI=1S/C10H20O2/c1-2-3-4-5-6-7-8-9-10(11)12/h2-9H2,1H3,(H,11,12)",GHVNFZFCNZKVNT-UHFFFAOYSA-N,CCCCCCCCCC(=O)O,-3.44,0.0050000000000001155,2,G3
E-1100,m-toluic_acid,"InChI=1S/C8H8O2/c1-6-3-2-4-7(5-6)8(9)10/h2-5H,1H3,(H,9,10)",GPSDUZXPYCFOSQ-UHFFFAOYSA-N,O=C(O)c(cccc1C)c1,-2.14,0.03499999999999992,2,G3
E-1101,cinnamic_acid,"InChI=1S/C9H8O2/c10-9(11)7-6-8-4-2-1-3-5-8/h1-7H,(H,10,11)",WBYWAXJHAXSJNI-UHFFFAOYSA-N,O=C(O)C=Cc(cccc1)c1,-2.48,0.0,1,G1
E-1102,1-naphthaceneacetic_acid,"InChI=1S/C12H10O2/c13-12(14)8-10-6-3-5-9-4-1-2-7-11(9)10/h1-7H,8H2,(H,13,14)",PRPINYUDVPFIRX-UHFFFAOYSA-N,O=C(O)Cc(c(c(ccc1)cc2)c1)c2,-2.65,0.0,1,G1
E-1103,diphenylacetic_acid,"InChI=1S/C14H12O2/c15-14(16)13(11-7-3-1-4-8-11)12-9-5-2-6-10-12/h1-10,13H,(H,15,16)",PYHXGXCGESYPCW-UHFFFAOYSA-N,O=C(O)C(c(cccc1)c1)c(cccc2)c2,-3.22,0.0,1,G1
E-1104,tetradecanoic_acid,"InChI=1S/C14H28O2/c1-2-3-4-5-6-7-8-9-10-11-12-13-14(15)16/h2-13H2,1H3,(H,15,16)",TUNFSRHWOTWDNC-UHFFFAOYSA-N,O=C(O)CCCCCCCCCCCCC,-5.33,0.0,1,G1
E-1105,ethyl_formate,"InChI=1S/C3H6O2/c1-2-5-3-4/h3H,2H2,1H3",WBJINCZRORDGAQ-UHFFFAOYSA-N,O=COCC,0.15,0.037,2,G3
E-1106,ethyl_propionate,"InChI=1S/C5H10O2/c1-3-5(6)7-4-2/h3-4H2,1-2H3",FKRCODPIKNYEAC-UHFFFAOYSA-N,O=C(OCC)CC,-0.66,0.032999999999999974,2,G3
E-1109,ethyl_capronate,"InChI=1S/C8H16O2/c1-3-5-6-7-8(9)10-4-2/h3-7H2,1-2H3",SHZIWNPUGXLXDT-UHFFFAOYSA-N,O=C(OCC)CCCCC,-2.31,0.02499999999999991,2,G3
E-1110,ethyl_nonanoate,"InChI=1S/C11H22O2/c1-3-5-6-7-8-9-10-11(12)13-4-2/h3-10H2,1-2H3",BYEVBITUADOIGY-UHFFFAOYSA-N,O=C(OCC)CCCCCCCC,-3.8,0.0,1,G1
E-1112,dibutyl_phthalate,"InChI=1S/C16H22O4/c1-3-5-11-19-15(17)13-9-7-8-10-14(13)16(18)20-12-6-4-2/h7-10H,3-6,11-12H2,1-2H3",DOIRQSBPFJWKBE-UHFFFAOYSA-N,O=C(OCCCC)c(c(ccc1)C(=O)OCCCC)c1,-4.4,0.0,1,G1
E-1113,diethyl_ether,"InChI=1S/C4H10O/c1-3-5-4-2/h3-4H2,1-2H3",RTZKZFJDLAIYFH-UHFFFAOYSA-N,CCOCC,-0.09,0.0,1,G1
E-1114,methyl_t-butyl_ether,"InChI=1S/C5H12O/c1-5(2,3)6-4/h1-4H3",BZLVMXJERCGZMT-UHFFFAOYSA-N,COC(C)(C)C,-0.24,0.0,1,G1
E-1115,propyl_isopropyl_ether,"InChI=1S/C6H14O/c1-4-5-7-6(2)3/h6H,4-5H2,1-3H3",JIEJJGMNDWIGBJ-UHFFFAOYSA-N,CCCOC(C)C,-1.34,0.0,1,G1
E-1116,anisole,"InChI=1S/C7H8O/c1-8-7-5-3-2-4-6-7/h2-6H,1H3",RDOXTESZEPMUJZ-UHFFFAOYSA-N,c1ccccc1OC,-1.85,0.08349999999999991,2,G3
E-1117,styrene_oxide,"InChI=1S/C8H8O/c1-2-4-7(5-3-1)8-6-9-8/h1-5,8H,6H2",AWMVMTVKBNGEAK-UHFFFAOYSA-N,O(C1c(cccc2)c2)C1,-1.6,0.0,1,G1
E-1118,2-butoxyethanol,"InChI=1S/C6H14O2/c1-2-3-5-8-6-4-7/h7H,2-6H2,1H3",POAOYUHQDCAZBD-UHFFFAOYSA-N,CCCCOCCO,-0.42,0.6735,2,G2
E-1120,prednisolone_acetate,"InChI=1S/C23H30O6/c1-13(24)29-12-19(27)23(28)9-7-17-16-5-4-14-10-15(25)6-8-21(14,2)20(16)18(26)11-22(17,23)3/h6,8,10,16-18,20,26,28H,4-5,7,9,11-12H2,1-3H3",LRJOMUJRLNCICJ-UHFFFAOYSA-N,O=C1C=C2CCC3C4CCC(O)(C(=O)COC(=O)C)C4(C)CC(O)C3C2(C)C=C1,-4.37,0.0,1,G1
E-1121,deoxycorticosterone,"InChI=1S/C21H30O3/c1-20-9-7-14(23)11-13(20)3-4-15-16-5-6-18(19(24)12-22)21(16,2)10-8-17(15)20/h11,15-18,22H,3-10,12H2,1-2H3",ZESRJSPZRDMNHY-UHFFFAOYSA-N,C1C(=O)C=C2CCC3C4CCC(C(=O)CO)C4(C)CCC3C2(C)C1,-3.75,0.1499999999999999,2,G3
E-1122,fludrocortisone,"InChI=1S/C21H29FO5/c1-18-7-5-13(24)9-12(18)3-4-15-14-6-8-20(27,17(26)11-23)19(14,2)10-16(25)21(15,18)22/h9,14-16,23,25,27H,3-8,10-11H2,1-2H3",AAXVEMMRQDVLJB-UHFFFAOYSA-N,CC12CC(O)C3(F)C(CCC4=CC(=O)CCC43C)C2CCC1(O)C(=O)CO,-3.43,0.05499999999999994,2,G3
E-1125,2-chlorophenol,"InChI=1S/C6H5ClO/c7-5-3-1-2-4-6(5)8/h1-4,8H",ISPYQTSUDJAMAB-UHFFFAOYSA-N,Oc(c(ccc1)Cl)c1,-1.06,0.0,1,G1
E-1127,p-chlorobenzoic_acid,"InChI=1S/C7H5ClO2/c8-6-3-1-5(2-4-6)7(9)10/h1-4H,(H,9,10)",XRHGYUZYPHTUJZ-UHFFFAOYSA-N,O=C(O)c(ccc(c1)Cl)c1,-3.31,0.010000000000000009,2,G3
E-1128,dieldrin,"InChI=1S/C12H8Cl6O/c13-8-9(14)11(16)5-3-1-2(6-7(3)19-6)4(5)10(8,15)12(11,17)18/h2-7H,1H2",DFBKLUNHFCTMDC-UHFFFAOYSA-N,ClC4=C(Cl)C5(Cl)C3C1CC(C2OC12)C3C4(Cl)C5(Cl)Cl,-6.29,0.0703957069398096,3,G5
E-1129,hexylamine,"InChI=1S/C6H15N/c1-2-3-4-5-6-7/h2-7H2,1H3",BMVXCPBXGZKUPN-UHFFFAOYSA-N,CCCCCCN,-1.1,0.08700000000000008,2,G3
E-1130,n-octylamine,"InChI=1S/C8H19N/c1-2-3-4-5-6-7-8-9/h2-9H2,1H3",IOQPZZOEVPZRBK-UHFFFAOYSA-N,CCCCCCCCN,-2.75,0.030200000000000005,2,G3
E-1131,N-methylaniline,"InChI=1S/C7H9N/c1-8-7-5-3-2-4-6-7/h2-6,8H,1H3",AFBPFSWMIHJQDM-UHFFFAOYSA-N,c1ccccc1NC,-1.28,0.0,1,G1
E-1132,"N,N-dimethylaniline","InChI=1S/C8H11N/c1-9(2)8-6-4-3-5-7-8/h3-7H,1-2H3",JLTDJTHDQAWBAV-UHFFFAOYSA-N,c1ccccc1N(C)C,-1.92,0.0,1,G1
E-1133,1-naphthylamine,"InChI=1S/C10H9N/c11-10-7-3-5-8-4-1-2-6-9(8)10/h1-7H,11H2",RUFPHBVGCFYCNW-UHFFFAOYSA-N,c(c(c(N)cc1)ccc2)(c2)c1,-1.92,0.0,1,G1
E-1136,nicotinic_acid,"InChI=1S/C6H5NO2/c8-6(9)5-2-1-3-7-4-5/h1-4H,(H,8,9)",PVNIIMVLHYAWGP-UHFFFAOYSA-N,O=C(O)c(cccn1)c1,-0.84,0.0050000000000000044,2,G3
E-1137,"2,6-dimethyl-4-pyrimidinamine","InChI=1S/C6H9N3/c1-4-3-6(7)9-5(2)8-4/h3H,1-2H3,(H2,7,8,9)",BJJDXAFKCKSLTE-UHFFFAOYSA-N,n1c(C)nc(N)cc1C,-1.28,0.0,1,G1
E-1139,6-hydroxyquinoline,"InChI=1S/C9H7NO/c11-8-3-4-9-7(6-8)2-1-5-10-9/h1-6,11H",OVYWMEWYEJLIER-UHFFFAOYSA-N,c1c(O)cc2cccnc2c1,-2.16,0.0,1,G1
E-1141,atropine,"InChI=1S/C17H23NO3/c1-18-13-7-8-14(18)10-15(9-13)21-17(20)16(11-19)12-5-3-2-4-6-12/h2-6,13-16,19H,7-11H2,1H3",RKUNBYITZUJHSG-UHFFFAOYSA-N,O=C(OC(CC(N(C1C2)C)C2)C1)C(c(cccc3)c3)CO,-2.12,0.1050000000000001,2,G3
E-1142,furosemide,"InChI=1S/C12H11ClN2O5S/c13-9-5-10(15-6-7-2-1-3-20-7)8(12(16)17)4-11(9)21(14,18)19/h1-5,15H,6H2,(H,16,17)(H2,14,18,19)",ZZUFCTLCJUWOSV-UHFFFAOYSA-N,NS(=O)(=O)c2cc(C(O)=O)c(NCc1ccco1)cc2Cl,-3.66,0.3900000000000001,2,G3
E-1143,amobarbital,"InChI=1S/C11H18N2O3/c1-4-11(6-5-7(2)3)8(14)12-10(16)13-9(11)15/h7H,4-6H2,1-3H3,(H2,12,13,14,15,16)",VIROVYVQCGLCII-UHFFFAOYSA-N,CCC1(CCC(C)C)C(=O)NC(=O)NC1=O,-2.57,0.07680277772754479,3,G5
E-1144,perphenazine,"InChI=1S/C21H26ClN3OS/c22-17-6-7-21-19(16-17)25(18-4-1-2-5-20(18)27-21)9-3-8-23-10-12-24(13-11-23)14-15-26/h1-2,4-7,16,26H,3,8-15H2",RGCVKNLCSQQDEP-UHFFFAOYSA-N,OCCN4CCN(CCCN2c1ccccc1Sc3ccc(Cl)cc23)CC4,-4.16,0.22999999999999998,2,G3
E-1146,arecoline,"InChI=1S/C8H13NO2/c1-9-5-3-4-7(6-9)8(10)11-2/h4H,3,5-6H2,1-2H3",HJJPJSXJAXAIPN-UHFFFAOYSA-N,CN1CCC=C(C(=O)OC)C1,0.81,0.0,1,G1
E-1149,disulfiram,"InChI=1S/C10H20N2S4/c1-5-11(6-2)9(13)15-16-10(14)12(7-3)8-4/h5-8H2,1-4H3",AUZONCFQVSMFAP-UHFFFAOYSA-N,N(C(=S)SSC(N(CC)CC)=S)(CC)CC,-4.86,0.9300000000000002,2,G2
E-1151,sulfamethiazole,"InChI=1S/C9H10N4O2S2/c1-6-11-12-9(16-6)13-17(14,15)8-4-2-7(10)3-5-8/h2-5H,10H2,1H3,(H,12,13)",VACCAVUAMIDAGB-UHFFFAOYSA-N,c1cc(N)ccc1S(=O)(=O)Nc2nnc(C)s2,-2.41,0.125,2,G3
E-1153,sulfaphenazole,"InChI=1S/C15H14N4O2S/c16-12-6-8-14(9-7-12)22(20,21)18-15-10-11-17-19(15)13-4-2-1-3-5-13/h1-11,18H,16H2",QWCJHSGMANYXCW-UHFFFAOYSA-N,Nc1ccc(cc1)S(=O)(=O)Nc2ccnn2c3ccccc3,-2.32,0.0,1,G1
E-1154,sulfamethoxazole,"InChI=1S/C10H11N3O3S/c1-7-6-10(12-16-7)13-17(14,15)9-4-2-8(11)3-5-9/h2-6H,11H2,1H3,(H,12,13)",JLKIGFTWXXRPMT-UHFFFAOYSA-N,Cc1cc(NS(=O)(=O)c2ccc(N)cc2)no1,-2.62,0.15000000000000013,2,G3
E-1155,sulfamethomidine,"InChI=1S/C12H14N4O3S/c1-8-14-11(7-12(15-8)19-2)16-20(17,18)10-5-3-9(13)4-6-10/h3-7H,13H2,1-2H3,(H,14,15,16)",QKLSCPPJEVXONT-UHFFFAOYSA-N,c1cc(N)ccc1S(=O)(=O)Nc2nc(C)nc(OC)c2,-2.54,0.0,1,G1
E-1156,oxycarboxin,"InChI=1S/C12H13NO4S/c1-9-11(18(15,16)8-7-17-9)12(14)13-10-5-3-2-4-6-10/h2-6H,7-8H2,1H3,(H,13,14)",AMEKQAFGQBKLKX-UHFFFAOYSA-N,c1ccccc1NC(=O)C2=C(C)OCCS2(=O)=O,-2.43,0.07455000000000012,2,G3
E-1157,ketoprofen,"InChI=1S/C16H14O3/c1-11(16(18)19)13-8-5-9-14(10-13)15(17)12-6-3-2-4-7-12/h2-11H,1H3,(H,18,19)",DKYWVDODHFEZIM-UHFFFAOYSA-N,O=C(c(cccc1C(C(=O)O)C)c1)c(cccc2)c2,-3.7,0.8300000000000001,2,G2
E-1159,cycloheximide,"InChI=1S/C15H23NO4/c1-8-3-9(2)15(20)11(4-8)12(17)5-10-6-13(18)16-14(19)7-10/h8-12,17H,3-7H2,1-2H3,(H,16,18,19)",YPHMISFOHDHNIV-UHFFFAOYSA-N,CC1CC(C)C(=O)C(C1)C(O)CC2CC(=O)NC(=O)C2,-1.13,0.0,1,G1
E-1160,piperazine,"InChI=1S/C4H10N2/c1-2-6-4-3-5-1/h5-6H,1-4H2",GLUUGHFHXGJENI-UHFFFAOYSA-N,N(CCNC1)C1,1.07,0.0,1,G1
E-1161,hydantoin,"InChI=1S/C3H4N2O2/c6-2-1-4-3(7)5-2/h1H2,(H2,4,5,6,7)",WJRBRSLFGCUECM-UHFFFAOYSA-N,O=C(NCC1=O)N1,-0.4,0.0,1,G1
E-1162,N-methylpyrrolidone,"InChI=1S/C5H9NO/c1-6-4-2-3-5(6)7/h2-4H2,1H3",SECXISVLQFMRJM-UHFFFAOYSA-N,O=C1CCCN1C,1.0,0.0,1,G1