ID,Name,InChI,InChIKey,SMILES,Solubility,SD,Occurrences,Group
C-2601,"l -365, 209,   analog 9 ;  (cyclic  hexapeptide)","InChI=1S/C43H56N8O6/c1-4-27(2)37-43(57)50-20-11-10-17-34(50)41(55)51-22-19-44-26-36(51)40(54)48(3)35(23-28-13-6-5-7-14-28)42(56)49-21-12-18-33(49)39(53)46-32(38(52)47-37)24-29-25-45-31-16-9-8-15-30(29)31/h5-9,13-16,25,27,32-37,44-45H,4,10-12,17-24,26H2,1-3H3,(H,46,53)(H,47,52)",XPKURONBKQLLCO-UHFFFAOYSA-N,CCC(C)C1NC(=O)C(CC2=C[NH]C3=C2C=CC=C3)NC(=O)C4CCCN4C(=O)C(CC5=CC=CC=C5)N(C)C(=O)C6CNCCN6C(=O)C7CCCCN7C1=O,-2.75,0.0,1,G1
C-2602,"l-365,209 -analog 12,  (cyclic hexapeptide)","InChI=1S/C39H50N10O6/c1-3-23(2)33-39(55)49-32(13-8-15-43-49)38(54)48-16-7-6-12-30(48)36(52)45-29(19-25-21-40-22-42-25)37(53)47-17-9-14-31(47)35(51)44-28(34(50)46-33)18-24-20-41-27-11-5-4-10-26(24)27/h4-5,10-11,15,20-23,28-33,41H,3,6-9,12-14,16-19H2,1-2H3,(H,40,42)(H,44,51)(H,45,52)(H,46,50)",KHZMWMBLYZHOQJ-UHFFFAOYSA-N,CCC(C)C1NC(=O)C(CC2=C[NH]C3=C2C=CC=C3)NC(=O)C4CCCN4C(=O)C(CC5=C[NH]C=N5)NC(=O)C6CCCCN6C(=O)C7CCC=NN7C1=O,-2.6,0.0,1,G1
C-2603,"l-365,209 ;  (cyclic  hexapeptide)","InChI=1S/C40H50N8O6/c1-4-26(2)34-40(54)48-32(19-12-22-42-48)39(53)47-31(18-11-21-41-47)37(51)45(3)33(25-28-16-9-6-10-17-28)38(52)46-23-13-20-30(46)36(50)43-29(35(49)44-34)24-27-14-7-5-8-15-27/h5-10,14-17,21-22,26,29-34H,4,11-13,18-20,23-25H2,1-3H3,(H,43,50)(H,44,49)",IFHSSGUGRIXWQU-UHFFFAOYSA-N,CCC(C)C1NC(=O)C(CC2=CC=CC=C2)NC(=O)C3CCCN3C(=O)C(CC4=CC=CC=C4)N(C)C(=O)C5CCC=NN5C(=O)C6CCC=NN6C1=O,-4.04,0.0,1,G1
D-3,"2,3-dimethylbutane","InChI=1S/C6H14/c1-5(2)6(3)4/h5-6H,1-4H3",ZFFMLCVRJBZUDZ-UHFFFAOYSA-N,CC(C)C(C)C,-3.583,0.03349999999999986,2,G3
D-9,cyclohexane,InChI=1S/C6H12/c1-2-4-6-5-3-1/h1-6H2,XDTMQSROBMDMFD-UHFFFAOYSA-N,C1CCCCC1,-3.185,0.04249999999999998,2,G3
D-11,dodecane,"InChI=1S/C12H26/c1-3-5-7-9-11-12-10-8-6-4-2/h3-12H2,1-2H3",SNRUBQQJIBEYMU-UHFFFAOYSA-N,CCCCCCCCCCCC,-6.41,0.6265499999999999,2,G2
D-12,n-heptane,"InChI=1S/C7H16/c1-3-5-7-6-4-2/h3-7H2,1-2H3",IMNFDUFMRHMDMM-UHFFFAOYSA-N,CCCCCCC,-4.468999999999999,0.030500000000000416,2,G3
D-15,"2,2-dimethylpropane","InChI=1S/C5H12/c1-5(2,3)4/h1-4H3",CRSOQBOWXPBRES-UHFFFAOYSA-N,CC(C)(C)C,-3.3369999999999997,0.0,1,G1
D-16,tetradecane,"InChI=1S/C14H30/c1-3-5-7-9-11-13-14-12-10-8-6-4-2/h3-14H2,1-2H3",BGHCVCJVXZWKCC-UHFFFAOYSA-N,CCCCCCCCCCCCCC,-7.456,0.24954999999999972,2,G3
D-17,carbon tetrachloride,"InChI=1S/CCl4/c2-1(3,4)5",VZGDMQKNWNREIO-UHFFFAOYSA-N,ClC(Cl)(Cl)Cl,-2.2880000000000003,0.010999999999999899,2,G3
D-22,methyl bromide,InChI=1S/CH3Br/c1-2/h1H3,GZUXJHMPEANEGY-UHFFFAOYSA-N,CBr,-0.7959999999999999,0.03700000000000003,2,G3
D-24,methyl iodide,InChI=1S/CH3I/c1-2/h1H3,INQOMBQAUSQDDS-UHFFFAOYSA-N,CI,-1.012,0.006000000000000005,2,G3
D-28,chloroethane,"InChI=1S/C2H5Cl/c1-2-3/h2H2,1H3",HRYZWHHZPQKTII-UHFFFAOYSA-N,CCCl,-1.055,0.0,1,G1
D-31,methylene iodide,InChI=1S/CH2I2/c2-1-3/h1H2,NZZFYRREKKOMAT-UHFFFAOYSA-N,ICI,-2.334,0.0,1,G1
D-34,"1,1-difluoroethane","InChI=1S/C2H4F2/c1-2(3)4/h2H,1H3",NPNPZTNLOVBDOC-UHFFFAOYSA-N,CC(F)F,-1.315,0.0,1,G1
D-35,dichlorofluoromethane,InChI=1S/CHCl2F/c2-1(3)4/h1H,UMNKXPULIDJLSU-UHFFFAOYSA-N,FC(Cl)Cl,-0.738,0.0,1,G1
D-36,chlorodifluoromethane,InChI=1S/CHClF2/c2-1(3)4/h1H,VOPWNXZWBYDODV-UHFFFAOYSA-N,FC(F)Cl,-1.494,0.0,1,G1
D-37,trifluoromethane,InChI=1S/CHF3/c2-1(3)4/h1H,XPDWGBQVDMORPB-UHFFFAOYSA-N,FC(F)F,-1.2329999999999999,0.0,1,G1
D-38,bromotrifluoromethane,"InChI=1S/CBrF3/c2-1(3,4)5",RJCQBQGAPKAMLL-UHFFFAOYSA-N,FC(F)(F)Br,-2.668,0.0,1,G1
D-39,trichlorofluoromethane,"InChI=1S/CCl3F/c2-1(3,4)5",CYRMSUTZVYGINF-UHFFFAOYSA-N,FC(Cl)(Cl)Cl,-2.096,0.0,1,G1
D-41,chlorotrifluoromethane,"InChI=1S/CClF3/c2-1(3,4)5",AFYPFACVUDMOHA-UHFFFAOYSA-N,FC(F)(F)Cl,-3.065,0.0,1,G1
D-42,pentachloroethane,"InChI=1S/C2HCl5/c3-1(4)2(5,6)7/h1H",BNIXVQGCZULYKV-UHFFFAOYSA-N,ClC(Cl)C(Cl)(Cl)Cl,-2.625,0.012499999999999956,2,G3
D-46,"1,1,2,2-tetrachloroethane",InChI=1S/C2H2Cl4/c3-1(4)2(5)6/h1-2H,QPFMBZIOSGYJDE-UHFFFAOYSA-N,ClC(Cl)C(Cl)Cl,-1.754,0.007000000000000006,2,G3
D-48,1-bromopropane,"InChI=1S/C3H7Br/c1-2-3-4/h2-3H2,1H3",CYNYIHKIEHGYOZ-UHFFFAOYSA-N,CCCBr,-1.7009999999999998,0.014500000000000068,2,G3
D-51,1-bromobutane,"InChI=1S/C4H9Br/c1-2-3-4-5/h2-4H2,1H3",MPPPKRYCTPRNTB-UHFFFAOYSA-N,CCCCBr,-2.198,0.08600000000000008,2,G3
D-63,fluoromethane,InChI=1S/CH3F/c1-2/h1H3,NBVXSUQYWXRMNV-UHFFFAOYSA-N,CF,-0.17600000000000002,0.0,1,G1
D-71,isobutene,"InChI=1S/C4H8/c1-4(2)3/h1H2,2-3H3",VQTUBCCKSQIDNK-UHFFFAOYSA-N,CC(C)=C,-2.329,0.0,1,G1
D-73,cycloheptatriene,"InChI=1S/C7H8/c1-2-4-6-7-5-3-1/h1-6H,7H2",CHVJITGCYZJHLR-UHFFFAOYSA-N,C1C=CC=CC=C1,-2.1719999999999997,0.010999999999999899,2,G3
D-74,trans-2-butene,"InChI=1S/C4H8/c1-3-4-2/h3-4H,1-2H3/b4-3-",IAQRGUVFOMOMEM-ARJAWSKDSA-N,C\C=C/C,-1.93,0.0,1,G1
D-78,1-heptene,"InChI=1S/C7H14/c1-3-5-7-6-4-2/h3H,1,4-7H2,2H3",ZGEGCLOFRBLKSE-UHFFFAOYSA-N,CCCCCC=C,-3.7319999999999998,0.0,1,G1
D-79,cis-2-butene,"InChI=1S/C4H8/c1-3-4-2/h3-4H,1-2H3/b4-3+",IAQRGUVFOMOMEM-ONEGZZNKSA-N,C\C=C\C,-2.041,0.0,1,G1
D-80,"1,4-cyclohexadiene","InChI=1S/C6H8/c1-2-4-6-5-3-1/h1-2,5-6H,3-4H2",UVJHQYIOXKWHFD-UHFFFAOYSA-N,C1C=CCC=C1,-2.059,0.044500000000000095,2,G3
D-82,"1,1-difluoroethene",InChI=1S/C2H2F2/c1-2(3)4/h1H2,BQCIDUSAKPWEOX-UHFFFAOYSA-N,FC(F)=C,-0.706,0.0,1,G1
D-89,"1,2-dichloroethene (trans)",InChI=1S/C2H2Cl2/c3-1-2-4/h1-2H/b2-1+,KFUSEUYYWQURPO-OWOJBTEDSA-N,Cl\C=C\Cl,-1.187,0.12749999999999995,2,G3
D-91,bromoethene,"InChI=1S/C2H3Br/c1-2-3/h2H,1H2",INLLPKCGLOXCIV-UHFFFAOYSA-N,BrC=C,-1.275,0.0,1,G1
D-92,4-bromo-1-butene,"InChI=1S/C4H7Br/c1-2-3-4-5/h2H,1,3-4H2",DMAYBPBPEUFIHJ-UHFFFAOYSA-N,BrCCC=C,-2.247,0.0,1,G1
D-93,"1,2-dibromoethene",InChI=1S/C2H2Br2/c3-1-2-4/h1-2H/b2-1+,UWTUEMKLYAGTNQ-OWOJBTEDSA-N,Br\C=C\Br,-1.742,0.0,1,G1
D-98,isopropoxyethanol,"InChI=1S/C5H12O2/c1-5(2)7-4-3-6/h5-6H,3-4H2,1-2H3",HCGFUIQPSOCUHI-UHFFFAOYSA-N,CC(C)OCCO,0.982,0.0,1,G1
D-99,2-methoxyethanol,"InChI=1S/C3H8O2/c1-5-3-2-4/h4H,2-3H2,1H3",XNWFRZJHXBZDAG-UHFFFAOYSA-N,COCCO,1.119,0.0,1,G1
D-100,dimethoxymethane,"InChI=1S/C3H8O2/c1-4-3-5-2/h3H2,1-2H3",NKDDWNXOKDWJAK-UHFFFAOYSA-N,COCOC,0.506,0.013000000000000012,2,G3
D-103,ethylene glycol dimethyl ether,"InChI=1S/C4H10O2/c1-5-3-4-6-2/h3-4H2,1-2H3",XTHFKEDIFFGKHM-UHFFFAOYSA-N,COCCOC,1.045,0.0,1,G1
D-104,2-ethoxyethanol,"InChI=1S/C4H10O2/c1-2-6-4-3-5/h5H,2-4H2,1H3",ZNQVEEAIQZEUHB-UHFFFAOYSA-N,CCOCCO,1.045,0.0,1,G1
D-106,di(n-propyl) ether,"InChI=1S/C6H14O/c1-3-5-7-6-4-2/h3-6H2,1-2H3",POLCUAVZOMRGSN-UHFFFAOYSA-N,CCCOCCC,-1.319,0.15050000000000008,2,G3
D-109,diethylene glycol monoethyl ether,"InChI=1S/C6H14O3/c1-2-8-5-6-9-4-3-7/h7H,2-6H2,1H3",XXJWXESWEXIICW-UHFFFAOYSA-N,CCOCCOCCO,0.872,0.0,1,G1
D-110,2-methoxyethylether,"InChI=1S/C6H14O3/c1-7-3-5-9-6-4-8-2/h3-6H2,1-2H3",SBZXBUIDTXKZTM-UHFFFAOYSA-N,COCCOCCOC,0.872,0.0,1,G1
D-111,2-hexyloxyethanol,"InChI=1S/C8H18O2/c1-2-3-4-5-7-10-8-6-9/h9H,2-8H2,1H3",UPGSWASWQBLSKZ-UHFFFAOYSA-N,CCCCCCOCCO,-1.169,0.0,1,G1
D-112,2-ethoxyethylether,"InChI=1S/C8H18O3/c1-3-9-5-7-11-8-6-10-4-2/h3-8H2,1-2H3",RRQYJINTUHWNHW-UHFFFAOYSA-N,CCOCCOCCOCC,0.79,0.0,1,G1
D-113,"1,2-dibutyoxyethane","InChI=1S/C10H22O2/c1-3-5-7-11-9-10-12-8-6-4-2/h3-10H2,1-2H3",GDXHBFHOEYVPED-UHFFFAOYSA-N,CCCCOCCOCCCC,-1.94,0.0,1,G1
D-114,diethylene glycol dibutyl ether,"InChI=1S/C12H26O3/c1-3-5-7-13-9-11-15-12-10-14-8-6-4-2/h3-12H2,1-2H3",KZVBBTZJMSWGTK-UHFFFAOYSA-N,CCCCOCCOCCOCCCC,-1.8619999999999999,0.0,1,G1
D-115,dimethyl ether,InChI=1S/C2H6O/c1-3-2/h1-2H3,LCGLNKUTAGEVQW-UHFFFAOYSA-N,COC,0.884,0.0,1,G1
D-116,paraldehyde,"InChI=1S/C6H12O3/c1-4-7-5(2)9-6(3)8-4/h4-6H,1-3H3",SQYNKIJPMDEDEG-UHFFFAOYSA-N,CC1OC(C)OC(C)O1,-0.07200000000000001,0.0,1,G1
D-117,"1,4-dioxane",InChI=1S/C4H8O2/c1-2-6-4-3-5-1/h1-4H2,RYHBNJHYFVUHQT-UHFFFAOYSA-N,C1COCCO1,1.055,0.0,1,G1
D-119,di-n-butyl ether,"InChI=1S/C8H18O/c1-3-5-7-9-8-6-4-2/h3-8H2,1-2H3",DURPTKYDGMDSBL-UHFFFAOYSA-N,CCCCOCCCC,-2.638,0.3939999999999999,2,G3
D-120,diethoxymethane,"InChI=1S/C5H12O2/c1-3-6-5-7-4-2/h3-5H2,1-2H3",KLKFAASOGCDTDT-UHFFFAOYSA-N,CCOCOCC,-0.17300000000000001,0.0,1,G1
D-122,"1,3-dioxalane",InChI=1S/C3H6O2/c1-2-5-3-4-1/h1-3H2,WNXJIVFYUVYPPR-UHFFFAOYSA-N,C1COCO1,1.13,0.0,1,G1
D-124,ethrane [haloether],"InChI=1S/C3H2ClF5O/c4-1(5)3(8,9)10-2(6)7/h1-2H",JPGQOUSTVILISH-UHFFFAOYSA-N,FC(F)OC(F)(F)C(F)Cl,-1.516,0.0,1,G1
D-125,isoflurane,"InChI=1S/C3H2ClF5O/c4-1(3(7,8)9)10-2(5)6/h1-2H",PIWKPBJCKXDKJR-UHFFFAOYSA-N,FC(F)OC(Cl)C(F)(F)F,-1.6159999999999999,0.0,1,G1
D-126,n-nitrosodiethylamine,"InChI=1S/C4H10N2O/c1-3-6(4-2)5-7/h3-4H2,1-2H3",WBNQDOYYEUMPFS-UHFFFAOYSA-N,CCN(CC)N=O,0.016,0.0,1,G1
D-127,n-nitrosomorpholine,InChI=1S/C4H8N2O2/c7-5-6-1-3-8-4-2-6/h1-4H2,ZKXDGKXYMTYWTB-UHFFFAOYSA-N,O=NN1CCOCC1,0.935,0.0,1,G1
D-128,n-nitrosodimethylamine,InChI=1S/C2H6N2O/c1-4(2)3-5/h1-2H3,UMFJAHHVKNCGLG-UHFFFAOYSA-N,CN(C)N=O,1.13,0.0,1,G1
D-133,n-nitrosodipropylamine,"InChI=1S/C6H14N2O/c1-3-5-8(7-9)6-4-2/h3-6H2,1-2H3",YLKFDHTUAUWZPQ-UHFFFAOYSA-N,CCCN(CCC)N=O,-1.001,0.0,1,G1
D-134,n-nitrosodibutylamine,"InChI=1S/C8H18N2O/c1-3-5-7-10(9-11)8-6-4-2/h3-8H2,1-2H3",YGJHZCLPZAZIHH-UHFFFAOYSA-N,CCCCN(CCCC)N=O,-2.096,0.0,1,G1
D-135,n-nitrosoethyl-n-butylamine,"InChI=1S/C6H14N2O/c1-3-5-6-8(4-2)7-9/h3-6H2,1-2H3",ZGMCNGHHUQZNIH-UHFFFAOYSA-N,CCCCN(CC)N=O,-1.035,0.0,1,G1
D-136,n-nitroso-n-methylbutylamine,"InChI=1S/C5H12N2O/c1-3-4-5-7(2)6-8/h3-5H2,1-2H3",PKTSCJXWLVREKX-UHFFFAOYSA-N,CCCCN(C)N=O,-0.7,0.0,1,G1
D-137,n-methyl-n-nitrosoethamine,"InChI=1S/C3H8N2O/c1-3-5(2)4-6/h3H2,1-2H3",RTDCJKARQCRONF-UHFFFAOYSA-N,CCN(C)N=O,0.532,0.0,1,G1
D-139,"p,p'-ddt","InChI=1S/C14H9Cl5/c15-11-5-1-9(2-6-11)13(14(17,18)19)10-3-7-12(16)8-4-10/h1-8,13H",YVGGHNCTFXOJCH-UHFFFAOYSA-N,Clc1ccc(cc1)C(c2ccc(Cl)cc2)C(Cl)(Cl)Cl,-7.809,0.38600542418468675,4,G5
D-140,trichlorfon,"InChI=1S/C4H8Cl3O4P/c1-10-12(9,11-2)3(8)4(5,6)7/h3,8H,1-2H3",NFACJZMKEDPNKN-UHFFFAOYSA-N,CO[P](=O)(OC)C(O)C(Cl)(Cl)Cl,-0.331,0.05550000000000001,2,G3
D-147,dichlorvos,"InChI=1S/C4H7Cl2O4P/c1-8-11(7,9-2)10-3-4(5)6/h3H,1-2H3",OEBRKCOSUFCWJD-UHFFFAOYSA-N,CO[P](=O)(OC)OC=C(Cl)Cl,-1.344,0.04864999999999997,2,G3
D-150,methoxychlor,"InChI=1S/C16H15Cl3O2/c1-20-13-7-3-11(4-8-13)15(16(17,18)19)12-5-9-14(21-2)10-6-12/h3-10,15H,1-2H3",IAKOZHOLGAGEJT-UHFFFAOYSA-N,COc1ccc(cc1)C(c2ccc(OC)cc2)C(Cl)(Cl)Cl,-6.539,0.18873311182725716,4,G5
D-155,warfarin,"InChI=1S/C19H16O4/c1-12(20)11-15(13-7-3-2-4-8-13)17-18(21)14-9-5-6-10-16(14)23-19(17)22/h2-10,15,22H,11H2,1H3",QTXVAVXCBMYBJW-UHFFFAOYSA-N,CC(=O)CC(c1ccccc1)C2=C(O)Oc3ccccc3C2=O,-4.2589999999999995,0.0,1,G1
D-163,soman,"InChI=1S/C7H16FO2P/c1-6(7(2,3)4)10-11(5,8)9/h6H,1-5H3",GRXKLBBBQUKJJZ-UHFFFAOYSA-N,CC(O[P](C)(F)=O)C(C)(C)C,-0.938,0.0,1,G1
D-164,dichlofenthion,"InChI=1S/C10H13Cl2O3PS/c1-3-13-16(17,14-4-2)15-10-6-5-8(11)7-9(10)12/h5-7H,3-4H2,1-2H3",WGOWCPGHOCIHBW-UHFFFAOYSA-N,CCO[P](=S)(OCC)Oc1ccc(Cl)cc1Cl,-6.109,0.0,1,G1
D-167,fenuron,"InChI=1S/C9H12N2O/c1-11(2)9(12)10-8-6-4-3-5-7-8/h3-7H,1-2H3,(H,10,12)",XXOYNJXVWVNOOJ-UHFFFAOYSA-N,CN(C)C(=O)Nc1ccccc1,-1.61,0.1108552609887726,3,G5
D-168,dcip,"InChI=1S/C6H12Cl2O/c1-5(3-7)9-6(2)4-8/h5-6H,3-4H2,1-2H3",QCFYJCYNJLBDRT-UHFFFAOYSA-N,CC(CCl)OC(C)CCl,-2.003,0.0,1,G1
D-172,aldicarb,"InChI=1S/C7H14N2O2S/c1-7(2,12-4)5-9-11-6(10)8-3/h5H,1-4H3,(H,8,10)/b9-5+",QGLZXHRNAYXIBU-WEVVVXLNSA-N,CNC(=O)O\N=C\C(C)(C)SC,-1.499,0.054500000000000104,2,G3
D-173,dichlorprop,"InChI=1S/C9H8Cl2O3/c1-5(9(12)13)14-8-3-2-6(10)4-7(8)11/h2-5H,1H3,(H,12,13)",MZHCENGPTKEIGP-UHFFFAOYSA-N,CC(Oc1ccc(Cl)cc1Cl)C(O)=O,-2.827,0.1884999999999999,2,G3
D-180,dicrotophos,"InChI=1S/C8H16NO5P/c1-7(6-8(10)9(2)3)14-15(11,12-4)13-5/h6H,1-5H3/b7-6+",VEENJGZXVHKXNB-VOTSOKGWSA-N,CO[P](=O)(OC)OC(/C)=C/C(=O)N(C)C,0.625,0.0,1,G1
D-183,phorate,"InChI=1S/C7H17O2PS3/c1-4-8-10(11,9-5-2)13-7-12-6-3/h4-7H2,1-3H3",BULVZWIRKLYCBC-UHFFFAOYSA-N,CCO[P](=S)(OCC)SCSCC,-3.717,0.19650000000000012,2,G3
D-185,ronnel,"InChI=1S/C8H8Cl3O3PS/c1-12-15(16,13-2)14-8-4-6(10)5(9)3-7(8)11/h3-4H,1-2H3",JHJOOSLFWRRSGU-UHFFFAOYSA-N,CO[P](=S)(OC)Oc1cc(Cl)c(Cl)cc1Cl,-5.507000000000001,0.7187503043477619,3,G4
D-188,naled,"InChI=1S/C4H7Br2Cl2O4P/c1-10-13(9,11-2)12-3(5)4(6,7)8/h3H,1-2H3",BUYMVQAILCEWRR-UHFFFAOYSA-N,CO[P](=O)(OC)OC(Br)C(Cl)(Cl)Br,-2.28,0.0,1,G1
D-190,paraoxon,"InChI=1S/C10H14NO6P/c1-3-15-18(14,16-4-2)17-10-7-5-9(6-8-10)11(12)13/h5-8H,3-4H2,1-2H3",WYMSBXTXOHUIGT-UHFFFAOYSA-N,CCO[P](=O)(OCC)Oc1ccc(cc1)[N+]([O-])=O,-2.059,0.0,1,G1
D-192,trichloronate,"InChI=1S/C10H12Cl3O2PS/c1-3-14-16(17,4-2)15-10-6-8(12)7(11)5-9(10)13/h5-6H,3-4H2,1-2H3",ANIAQSUBRGXWLS-UHFFFAOYSA-N,CCO[P](=S)(CC)Oc1cc(Cl)c(Cl)cc1Cl,-5.752000000000001,0.0,1,G1
D-195,diazinon,"InChI=1S/C12H21N2O3PS/c1-6-15-18(19,16-7-2)17-11-8-10(5)13-12(14-11)9(3)4/h8-9H,6-7H2,1-5H3",FHIVAFMUCKRCQO-UHFFFAOYSA-N,CCO[P](=S)(OCC)Oc1cc(C)nc(n1)C(C)C,-3.8810000000000002,0.12050000000000005,2,G3
D-196,chlorfenvinphos,"InChI=1S/C12H14Cl3O4P/c1-3-17-20(16,18-4-2)19-12(8-13)10-6-5-9(14)7-11(10)15/h5-8H,3-4H2,1-2H3/b12-8-",FSAVDKDHPDSCTO-WQLSENKSSA-N,CCO[P](=O)(OCC)OC(=C\Cl)/c1ccc(Cl)cc1Cl,-3.4619999999999997,0.0,1,G1
D-197,anabasine,"InChI=1S/C10H14N2/c1-2-7-12-10(5-1)9-4-3-6-11-8-9/h3-4,6,8,10,12H,1-2,5,7H2/t10-/m0/s1",MTXSIJUGVMTTMU-JTQLQIEISA-N,C1CC[C@H](NC1)c2cccnc2,0.79,0.0,1,G1
D-198,3-chloro-dimethyl parathion,"InChI=1S/C8H9ClNO5PS/c1-13-16(17,14-2)15-6-3-4-8(10(11)12)7(9)5-6/h3-5H,1-2H3",NZNRRXXETLSZRO-UHFFFAOYSA-N,CO[P](=S)(OC)Oc1ccc(c(Cl)c1)[N+]([O-])=O,-3.872,0.0,1,G1
D-199,neburon,"InChI=1S/C12H16Cl2N2O/c1-3-4-7-16(2)12(17)15-9-5-6-10(13)11(14)8-9/h5-6,8H,3-4,7H2,1-2H3,(H,15,17)",CCGPUGMWYLICGL-UHFFFAOYSA-N,CCCCN(C)C(=O)Nc1ccc(Cl)c(Cl)c1,-4.758,0.005999999999999783,2,G3
D-201,ethion,"InChI=1S/C9H22O4P2S4/c1-5-10-14(16,11-6-2)18-9-19-15(17,12-7-3)13-8-4/h5-9H2,1-4H3",RIZMRRKBZQXFOY-UHFFFAOYSA-N,CCO[P](=S)(OCC)SCS[P](=S)(OCC)OCC,-5.284,0.1280000000000001,2,G3
D-204,o-propylcarbamate,"InChI=1S/C4H9NO2/c1-2-3-7-4(5)6/h2-3H2,1H3,(H2,5,6)",YNTOKMNHRPSGFU-UHFFFAOYSA-N,CCCOC(N)=O,-0.13,0.0,1,G1
D-205,propanil,"InChI=1S/C9H9Cl2NO/c1-2-9(13)12-6-3-4-7(10)8(11)5-6/h3-5H,2H2,1H3,(H,12,13)",LFULEKSKNZEWOE-UHFFFAOYSA-N,CCC(=O)Nc1ccc(Cl)c(Cl)c1,-2.986,0.1349323904776019,4,G5
D-207,eptam (eptc),"InChI=1S/C9H19NOS/c1-4-7-10(8-5-2)9(11)12-6-3/h4-8H2,1-3H3",GUVLYNGULCJVDO-UHFFFAOYSA-N,CCCN(CCC)C(=O)SCC,-2.7030000000000003,0.0,1,G1
D-210,terbutryn,"InChI=1S/C10H19N5S/c1-6-11-7-12-8(15-10(2,3)4)14-9(13-7)16-5/h6H2,1-5H3,(H2,11,12,13,14,15)",IROINLKCQGIITA-UHFFFAOYSA-N,CCNc1nc(NC(C)(C)C)nc(SC)n1,-3.985,0.007500000000000062,2,G3
D-212,carbophenothion-methyl,"InChI=1S/C9H12ClO2PS3/c1-11-13(14,12-2)16-7-15-9-5-3-8(10)4-6-9/h3-6H,7H2,1-2H3",OUCCVXVYGFBXSV-UHFFFAOYSA-N,CO[P](=S)(OC)SCSc1ccc(Cl)cc1,-5.294,0.0,1,G1
D-213,a-endosulfan,"InChI=1S/C9H6Cl6O3S/c10-5-6(11)8(13)4-2-18-19(16)17-1-3(4)7(5,12)9(8,14)15/h3-4H,1-2H2/t3-,4+,7-,8?,19?/m1/s1",RDYMFSUJUZBWLH-GDSHQCHSSA-N,ClC1=C(Cl)C2(Cl)[C@H]3CO[S](=O)OC[C@H]3[C@]1(Cl)C2(Cl)Cl,-5.902,0.0,1,G1
D-214,stirofos,"InChI=1S/C10H9Cl4O4P/c1-16-19(15,17-2)18-10(5-11)6-3-8(13)9(14)4-7(6)12/h3-5H,1-2H3/b10-5+",UBCKGWBNUIFUST-BJMVGYQFSA-N,CO[P](=O)(OC)OC(=C/Cl)/c1cc(Cl)c(Cl)cc1Cl,-4.522,0.0,1,G1
D-215,chlormequat chloride,"InChI=1S/C5H13ClN.ClH/c1-7(2,3)5-4-6;/h4-5H2,1-3H3;1H/q+1;/p-1",UHZZMRAGKVHANO-UHFFFAOYSA-M,[Cl-].C[N+](C)(C)CCCl,0.799,0.0,1,G1
D-223,chloridazon,"InChI=1S/C10H8ClN3O/c11-9-8(12)6-13-14(10(9)15)7-4-2-1-3-5-7/h1-6H,12H2",WYKYKTKDBLFHCY-UHFFFAOYSA-N,NC1=C(Cl)C(=O)N(N=C1)c2ccccc2,-2.7439999999999998,0.06300000000000017,2,G3
D-226,chlornitrofen,InChI=1S/C12H6Cl3NO3/c13-7-5-10(14)12(11(15)6-7)19-9-3-1-8(2-4-9)16(17)18/h1-6H,XQNAUQUKWRBODG-UHFFFAOYSA-N,[O-][N+](=O)c1ccc(Oc2c(Cl)cc(Cl)cc2Cl)cc1,-5.62,0.0,1,G1
D-237,molinate,"InChI=1S/C9H17NOS/c1-2-12-9(11)10-7-5-3-4-6-8-10/h2-8H2,1H3",DEDOPGXGGQYYMW-UHFFFAOYSA-N,CCSC(=O)N1CCCCCC1,-2.286,0.0,1,G1
D-240,propargite,"InChI=1S/C19H26O4S/c1-5-14-21-24(20)23-18-9-7-6-8-17(18)22-16-12-10-15(11-13-16)19(2,3)4/h1,10-13,17-18H,6-9,14H2,2-4H3",ZYHMJXZULPZUED-UHFFFAOYSA-N,CC(C)(C)c1ccc(OC2CCCCC2O[S](=O)OCC#C)cc1,-5.846,0.0,1,G1
D-244,n-methyl-2-isopropylphenylcarbamate,"InChI=1S/C11H15NO2/c1-8(2)9-6-4-5-7-10(9)14-11(13)12-3/h4-8H,1-3H3,(H,12,13)",QBSJMKIUCUGGNG-UHFFFAOYSA-N,CNC(=O)Oc1ccccc1C(C)C,-2.6839999999999997,0.08950000000000014,2,G3
D-245,cyanophos,"InChI=1S/C9H10NO3PS/c1-11-14(15,12-2)13-9-5-3-8(7-10)4-6-9/h3-6H,1-2H3",SCKHCCSZFPSHGR-UHFFFAOYSA-N,CO[P](=S)(OC)Oc1ccc(cc1)C#N,-3.7230000000000003,0.0,1,G1
D-251,abate,"InChI=1S/C16H20O6P2S3/c1-17-23(25,18-2)21-13-5-9-15(10-6-13)27-16-11-7-14(8-12-16)22-24(26,19-3)20-4/h5-12H,1-4H3",WWJZWCUNLNYYAU-UHFFFAOYSA-N,CO[P](=S)(OC)Oc1ccc(Sc2ccc(O[P](=S)(OC)OC)cc2)cc1,-6.237,0.47650000000000015,2,G3
D-254,salithion,"InChI=1S/C8H9O3PS/c1-9-12(13)10-6-7-4-2-3-5-8(7)11-12/h2-5H,6H2,1H3",OUNSASXJZHBGAI-UHFFFAOYSA-N,CO[P]1(=S)OCc2ccccc2O1,-3.571,0.0645,2,G3
D-255,bromophos ethyl,"InChI=1S/C10H12BrCl2O3PS/c1-3-14-17(18,15-4-2)16-10-6-8(12)7(11)5-9(10)13/h5-6H,3-4H2,1-2H3",KWGUFOITWDSNQY-UHFFFAOYSA-N,CCO[P](=S)(OCC)Oc1cc(Cl)c(Br)cc1Cl,-5.952000000000001,0.0,1,G1
D-256,chlorpyrifos methyl,"InChI=1S/C7H7Cl3NO3PS/c1-12-15(16,13-2)14-7-5(9)3-4(8)6(10)11-7/h3H,1-2H3",HRBKVYFZANMGRE-UHFFFAOYSA-N,CO[P](=S)(OC)Oc1nc(Cl)c(Cl)cc1Cl,-4.831,0.04008601862107138,3,G5
D-258,desethylatrazine,"InChI=1S/C6H10ClN5/c1-3(2)9-6-11-4(7)10-5(8)12-6/h3H,1-2H3,(H3,8,9,10,11,12)",DFWFIQKMSFGDCQ-UHFFFAOYSA-N,CC(C)Nc1nc(N)nc(Cl)n1,-2.7060000000000004,0.0,1,G1
D-259,prometryne,"InChI=1S/C10H19N5S/c1-6(2)11-8-13-9(12-7(3)4)15-10(14-8)16-5/h6-7H,1-5H3,(H2,11,12,13,14,15)",AAEVYOVXGOFMJO-UHFFFAOYSA-N,CSc1nc(NC(C)C)nc(NC(C)C)n1,-3.864,0.11799999999999988,2,G3
D-261,propaphos,"InChI=1S/C13H21O4PS/c1-4-10-15-18(14,16-11-5-2)17-12-6-8-13(19-3)9-7-12/h6-9H,4-5,10-11H2,1-3H3",PWYIUEFFPNVCMW-UHFFFAOYSA-N,CCCO[P](=O)(OCCC)Oc1ccc(SC)cc1,-3.386,0.0,1,G1
D-265,terbufos,"InChI=1S/C9H21O2PS3/c1-6-10-12(13,11-7-2)15-8-14-9(3,4)5/h6-8H2,1-5H3",XLNZEKHULJKQBA-UHFFFAOYSA-N,CCO[P](=S)(OCC)SCSC(C)(C)C,-4.755,0.0,1,G1
D-267,phoxim,"InChI=1S/C12H15N2O3PS/c1-3-15-18(19,16-4-2)17-14-12(10-13)11-8-6-5-7-9-11/h5-9H,3-4H2,1-2H3/b14-12+",ATROHALUCMTWTB-WYMLVPIESA-N,CCO[P](=S)(OCC)O\N=C(C#N)\c1ccccc1,-4.63,0.11595000000000022,2,G3
D-269,chlortoluron,"InChI=1S/C10H13ClN2O/c1-7-4-5-8(6-9(7)11)12-10(14)13(2)3/h4-6H,1-3H3,(H,12,14)",JXCGFZXSOMJFOA-UHFFFAOYSA-N,CN(C)C(=O)Nc1ccc(C)c(Cl)c1,-3.483,0.4048096946577353,3,G5
D-271,methomyl,"InChI=1S/C5H10N2O2S/c1-4(10-3)7-9-5(8)6-2/h1-3H3,(H,6,8)/b7-4+",UHXUZOCRWCRNSJ-QPJJXVBHSA-N,CNC(=O)O\N=C(/C)SC,-0.447,0.0,1,G1
D-272,edifenphos,"InChI=1S/C14H15O2PS2/c1-2-16-17(15,18-13-9-5-3-6-10-13)19-14-11-7-4-8-12-14/h3-12H,2H2,1H3",AWZOLILCOUMRDG-UHFFFAOYSA-N,CCO[P](=O)(Sc1ccccc1)Sc2ccccc2,-3.3310000000000004,0.0,1,G1
D-277,metribuzin,"InChI=1S/C8H14N4OS/c1-8(2,3)5-6(13)12(9)7(14-4)11-10-5/h9H2,1-4H3",FOXFZRUHNHCZPX-UHFFFAOYSA-N,CSC1=NN=C(C(=O)N1N)C(C)(C)C,-2.245,0.03249999999999997,2,G3
D-278,leptophos,"InChI=1S/C13H10BrCl2O2PS/c1-17-19(20,9-5-3-2-4-6-9)18-13-8-11(15)10(14)7-12(13)16/h2-8H,1H3",CVRALZAYCYJELZ-UHFFFAOYSA-N,CO[P](=S)(Oc1cc(Cl)c(Br)cc1Cl)c2ccccc2,-7.138,0.9443450405204422,3,G4
D-280,fenamiphos,"InChI=1S/C13H22NO3PS/c1-6-16-18(15,14-10(2)3)17-12-7-8-13(19-5)11(4)9-12/h7-10H,6H2,1-5H3,(H,14,15)",ZCJPOPBZHLUFHF-UHFFFAOYSA-N,CCO[P](=O)(NC(C)C)Oc1ccc(SC)c(C)c1,-2.965,0.0674999999999999,2,G3
D-282,pirimiphos ethyl,"InChI=1S/C13H24N3O3PS/c1-6-16(7-2)13-14-11(5)10-12(15-13)19-20(21,17-8-3)18-9-4/h10H,6-9H2,1-5H3",TZBPRYIIJAJUOY-UHFFFAOYSA-N,CCO[P](=S)(OCC)Oc1cc(C)nc(n1)N(CC)CC,-4.9239999999999995,0.0,1,G1
D-284,piperophos,"InChI=1S/C14H28NO3PS2/c1-4-10-17-19(20,18-11-5-2)21-12-14(16)15-9-7-6-8-13(15)3/h13H,4-12H2,1-3H3",UNLYSVIDNRIVFJ-UHFFFAOYSA-N,CCCO[P](=S)(OCCC)SCC(=O)N1CCCCC1C,-4.15,0.0,1,G1
D-286,isofenphos,"InChI=1S/C15H24NO4PS/c1-6-18-21(22,16-11(2)3)20-14-10-8-7-9-13(14)15(17)19-12(4)5/h7-12H,6H2,1-5H3,(H,16,22)",HOQADATXFBOEGG-UHFFFAOYSA-N,CCO[P](=S)(NC(C)C)Oc1ccccc1C(=O)OC(C)C,-4.194,0.0,1,G1
D-287,ibp (iprofenfos),"InChI=1S/C13H21O3PS/c1-11(2)15-17(14,16-12(3)4)18-10-13-8-6-5-7-9-13/h5-9,11-12H,10H2,1-4H3",FCOAHACKGGIURQ-UHFFFAOYSA-N,CC(C)O[P](=O)(OC(C)C)SCc1ccccc1,-2.858,0.0,1,G1
D-289,thiobencarb,"InChI=1S/C12H16ClNOS/c1-3-14(4-2)12(15)16-9-10-5-7-11(13)8-6-10/h5-8H,3-4,9H2,1-2H3",QHTQREMOGMZHJV-UHFFFAOYSA-N,CCN(CC)C(=O)SCc1ccc(Cl)cc1,-3.964,0.0,1,G1