ID,Name,InChI,InChIKey,SMILES,Solubility,SD,Occurrences,Group
C-844,n1-(4-cyanophenyl)sulfanilamide;  4-cyanosulfabenzene,"InChI=1S/C13H11N3O2S/c14-9-10-1-5-12(6-2-10)16-19(17,18)13-7-3-11(15)4-8-13/h1-8,16H,15H2",PLPNDNWDSGFETI-UHFFFAOYSA-N,NC1=CC=C(C=C1)[S](=O)(=O)NC2=CC=C(C=C2)C#N,-3.6,0.0,1,G1
C-846,propoxyphene,"InChI=1S/C22H29NO2/c1-5-21(24)25-22(18(2)17-23(3)4,20-14-10-7-11-15-20)16-19-12-8-6-9-13-19/h6-15,18H,5,16-17H2,1-4H3",XLMALTXPSGQGBX-UHFFFAOYSA-N,CCC(=O)OC(CC1=CC=CC=C1)(C(C)CN(C)C)C2=CC=CC=C2,-2.61,0.0,1,G1
C-848,disopyramide,"InChI=1S/C21H29N3O/c1-16(2)24(17(3)4)15-13-21(20(22)25,18-10-6-5-7-11-18)19-12-8-9-14-23-19/h5-12,14,16-17H,13,15H2,1-4H3,(H2,22,25)",UVTNFZQICZKOEM-UHFFFAOYSA-N,CC(C)N(CCC(C(N)=O)(C1=CC=CC=C1)C2=NC=CC=C2)C(C)C,-1.7,0.0,1,G1
C-849,triphenylmethanol;  triphenylcarbinol;  trityl  alcohol,"InChI=1S/C19H16O/c20-19(16-10-4-1-5-11-16,17-12-6-2-7-13-17)18-14-8-3-9-15-18/h1-15,20H",LZTRCELOJRDYMQ-UHFFFAOYSA-N,OC(C1=CC=CC=C1)(C2=CC=CC=C2)C3=CC=CC=C3,-2.26,0.0,1,G1
C-850,"5,5-diphenylbarbituric  acid","InChI=1S/C16H12N2O3/c19-13-16(11-7-3-1-4-8-11,12-9-5-2-6-10-12)14(20)18-15(21)17-13/h1-10H,(H2,17,18,19,20,21)",IKVPZYAOGOJTLK-UHFFFAOYSA-N,O=C1NC(=O)C(C(=O)N1)(C2=CC=CC=C2)C3=CC=CC=C3,-4.2,0.0,1,G1
C-851,"dibenzo-18-crown-6;    [3,3]db18c6","InChI=1S/C20H24O6/c1-2-6-18-17(5-1)23-13-9-21-11-15-25-19-7-3-4-8-20(19)26-16-12-22-10-14-24-18/h1-8H,9-16H2",YSSSPARMOAYJTE-UHFFFAOYSA-N,C1COC2=C(OCCOCCOC3=C(OCCO1)C=CC=C3)C=CC=C2,-4.69,0.0,1,G1
C-852,"(rs)-4-hydroxy-4,5,6,7-tetrahydro-2-sulfamoylthieno[2,3-b]thiopyran-7,7-dioxide","InChI=1S/C7H9NO5S3/c8-16(12,13)6-3-4-5(9)1-2-15(10,11)7(4)14-6/h3,5,9H,1-2H2,(H2,8,12,13)",MAZCFXDIYXGRAD-UHFFFAOYSA-N,N[S](=O)(=O)C1=CC2=C(S1)[S](=O)(=O)CCC2O,-1.36,0.0,1,G1
C-853,1-(4-nitrophenylsulfonyl)cycloheptanecarboxylic acid isopropyl ester,"InChI=1S/C17H23NO6S/c1-13(2)24-16(19)17(11-5-3-4-6-12-17)25(22,23)15-9-7-14(8-10-15)18(20)21/h7-10,13H,3-6,11-12H2,1-2H3",RWOBYZRHHZGFHD-UHFFFAOYSA-N,CC(C)OC(=O)C1(CCCCCC1)[S](=O)(=O)C2=CC=C(C=C2)[N+]([O-])=O,-5.07,0.0,1,G1
C-854,n-(4-nitrophenyl)benzenesulfonamide,"InChI=1S/C12H10N2O4S/c15-14(16)11-8-6-10(7-9-11)13-19(17,18)12-4-2-1-3-5-12/h1-9,13H",SWSJPCDGJYPPCS-UHFFFAOYSA-N,[O-][N+](=O)C1=CC=C(N[S](=O)(=O)C2=CC=CC=C2)C=C1,-3.93,0.0,1,G1
C-856,prochloraz,"InChI=1S/C15H16Cl3N3O2/c1-2-4-20(15(22)21-5-3-19-10-21)6-7-23-14-12(17)8-11(16)9-13(14)18/h3,5,8-10H,2,4,6-7H2,1H3",TVLSRXXIMLFWEO-UHFFFAOYSA-N,CCCN(CCOC1=C(Cl)C=C(Cl)C=C1Cl)C(=O)[N]2C=CN=C2,-4.04,0.0,1,G1
C-857,sulfamethoxypyridazine;  3-sulfa-6-methoxypyridazine,"InChI=1S/C11H12N4O3S/c1-18-11-7-6-10(13-14-11)15-19(16,17)9-4-2-8(12)3-5-9/h2-7H,12H2,1H3,(H,13,15)",VLYWMPOKSSWJAL-UHFFFAOYSA-N,COC1=CC=C(N[S](=O)(=O)C2=CC=C(N)C=C2)N=N1,-2.68,0.6994070647500081,3,G4
C-858,phosalone;  zolone,"InChI=1S/C12H15ClNO4PS2/c1-3-16-19(20,17-4-2)21-8-14-10-6-5-9(13)7-11(10)18-12(14)15/h5-7H,3-4,8H2,1-2H3",IOUNQDKNJZEDEP-UHFFFAOYSA-N,CCO[P](=S)(OCC)SCN1C(=O)OC2=C1C=CC(=C2)Cl,-5.08,0.07649999999999979,2,G3
C-862,"3,3',4,4',5,5'-hexachlorobiphenyl",InChI=1S/C12H4Cl6/c13-7-1-5(2-8(14)11(7)17)6-3-9(15)12(18)10(16)4-6/h1-4H,ZHLICBPIXDOFFG-UHFFFAOYSA-N,ClC1=C(Cl)C(=CC(=C1)C2=CC(=C(Cl)C(=C2)Cl)Cl)Cl,-8.85,0.0,1,G1
C-864,n1-(3-chloro-4-methylphenyl)sulfanilamide;  3-chloro-4-methylsulfabenzene,"InChI=1S/C13H13ClN2O2S/c1-9-2-5-11(8-13(9)14)16-19(17,18)12-6-3-10(15)4-7-12/h2-8,16H,15H2,1H3",KSNBKURTGGLQHU-UHFFFAOYSA-N,CC1=C(Cl)C=C(N[S](=O)(=O)C2=CC=C(N)C=C2)C=C1,-4.91,0.0,1,G1
C-865,n1-(4-chloro-2-methylphenyl)sulfanilamide;  4-chloro-2-methylsulfabenzene,"InChI=1S/C13H13ClN2O2S/c1-9-8-10(14)2-7-13(9)16-19(17,18)12-5-3-11(15)4-6-12/h2-8,16H,15H2,1H3",QVUSGTRNWLETRQ-UHFFFAOYSA-N,CC1=C(N[S](=O)(=O)C2=CC=C(N)C=C2)C=CC(=C1)Cl,-4.35,0.0,1,G1
C-867,dicofol;  kelthane,"InChI=1S/C14H9Cl5O/c15-11-5-1-9(2-6-11)13(20,14(17,18)19)10-3-7-12(16)8-4-10/h1-8,20H",UOAMTSKGCBMZTC-UHFFFAOYSA-N,OC(C1=CC=C(Cl)C=C1)(C2=CC=C(Cl)C=C2)C(Cl)(Cl)Cl,-5.67,0.11100000000000021,2,G3
C-868,"n-(2,3-dichlorophenyl)benzenesulfonamide","InChI=1S/C12H9Cl2NO2S/c13-10-7-4-8-11(12(10)14)15-18(16,17)9-5-2-1-3-6-9/h1-8,15H",VAIYLVSTCHKPAY-UHFFFAOYSA-N,ClC1=CC=CC(=C1Cl)N[S](=O)(=O)C2=CC=CC=C2,-4.73,0.0,1,G1
C-869,n1-(4-chlorophenyl)-2-methylsulfanilamide; 4-chloro-1-(4-amino-2-methylphenylsulfonamido)benzene,"InChI=1S/C13H13ClN2O2S/c1-9-8-11(15)4-7-13(9)19(17,18)16-12-5-2-10(14)3-6-12/h2-8,16H,15H2,1H3",WKVHKLUGADLQMG-UHFFFAOYSA-N,CC1=C(C=CC(=C1)N)[S](=O)(=O)NC2=CC=C(Cl)C=C2,-4.42,0.0,1,G1
C-870,"sulfisomidine;  2,6-dimethyl-4-sulfapyrimidine","InChI=1S/C12H14N4O2S/c1-8-7-12(15-9(2)14-8)16-19(17,18)11-5-3-10(13)4-6-11/h3-7H,13H2,1-2H3,(H,14,15,16)",YZMCKZRAOLZXAZ-UHFFFAOYSA-N,CC1=CC(=NC(=N1)C)N[S](=O)(=O)C2=CC=C(N)C=C2,-2.3,0.029999999999999805,2,G3
C-872,methaqualone;  2-methyl-3-(2-tolyl)quinazolin-4-one,"InChI=1S/C16H14N2O/c1-11-7-3-6-10-15(11)18-12(2)17-14-9-5-4-8-13(14)16(18)19/h3-10H,1-2H3",JEYCTXHKTXCGPB-UHFFFAOYSA-N,CC1=CC=CC=C1N2C(=NC3=C(C=CC=C3)C2=O)C,-2.92,0.0,1,G1
C-874,"2,3,3',4,4',5'-hexachlorobiphenyl",InChI=1S/C12H4Cl6/c13-7-2-1-6(10(16)12(7)18)5-3-8(14)11(17)9(15)4-5/h1-4H,YTWXDQVNPCIEOX-UHFFFAOYSA-N,ClC1=CC=C(C2=CC(=C(Cl)C(=C2)Cl)Cl)C(=C1Cl)Cl,-9.1,0.0,1,G1
C-875,n1-(5-chloro-2-methylphenyl)sulfanilamide;  5-chloro-2-methylsulfabenzene,"InChI=1S/C13H13ClN2O2S/c1-9-2-3-10(14)8-13(9)16-19(17,18)12-6-4-11(15)5-7-12/h2-8,16H,15H2,1H3",PGWAMIHTVMBZDQ-UHFFFAOYSA-N,CC1=C(N[S](=O)(=O)C2=CC=C(N)C=C2)C=C(Cl)C=C1,-3.98,0.0,1,G1
C-877,n1-(2-chloro-4-methylphenyl)sulfanilamide;  2-chloro-4-methylsulfabenzene,"InChI=1S/C13H13ClN2O2S/c1-9-2-7-13(12(14)8-9)16-19(17,18)11-5-3-10(15)4-6-11/h2-8,16H,15H2,1H3",IIQTWTHBDAEKBJ-UHFFFAOYSA-N,CC1=CC(=C(N[S](=O)(=O)C2=CC=C(N)C=C2)C=C1)Cl,-4.32,0.0,1,G1
C-882,n-(2-nitrophenyl)benzenesulfonamide,"InChI=1S/C12H10N2O4S/c15-14(16)12-9-5-4-8-11(12)13-19(17,18)10-6-2-1-3-7-10/h1-9,13H",QYEQJQLZLZRQEB-UHFFFAOYSA-N,[O-][N+](=O)C1=CC=CC=C1N[S](=O)(=O)C2=CC=CC=C2,-4.01,0.0,1,G1
C-885,"2,2',3,3',4,4'-hexachlorobiphenyl",InChI=1S/C12H4Cl6/c13-7-3-1-5(9(15)11(7)17)6-2-4-8(14)12(18)10(6)16/h1-4H,BTAGRXWGMYTPBY-UHFFFAOYSA-N,ClC1=C(Cl)C(=C(C=C1)C2=CC=C(Cl)C(=C2Cl)Cl)Cl,-8.78,0.42858915836342226,3,G5
C-886,"2,2',3,4',5,5'-hexachlorobiphenyl",InChI=1S/C12H4Cl6/c13-5-1-7(12(18)11(17)2-5)6-3-9(15)10(16)4-8(6)14/h1-4H,BQHCQAQLTCQFJZ-UHFFFAOYSA-N,ClC1=CC(=C(Cl)C(=C1)C2=C(Cl)C=C(Cl)C(=C2)Cl)Cl,-8.58,0.009999999999999787,2,G3
C-888,"2,3,3',4',5',6-hexachlorobiphenyl",InChI=1S/C12H4Cl6/c13-6-1-2-7(14)12(18)10(6)5-3-8(15)11(17)9(16)4-5/h1-4H,HAZQOLYHFUUJJN-UHFFFAOYSA-N,ClC1=CC=C(Cl)C(=C1Cl)C2=CC(=C(Cl)C(=C2)Cl)Cl,-8.27,0.0,1,G1
C-889,"2,3,3',4',5,6-hexachlorobiphenyl",InChI=1S/C12H4Cl6/c13-6-2-1-5(3-7(6)14)10-11(17)8(15)4-9(16)12(10)18/h1-4H,ZAGRQXMWMRUYRB-UHFFFAOYSA-N,ClC1=C(Cl)C=C(C=C1)C2=C(Cl)C(=CC(=C2Cl)Cl)Cl,-8.48,0.0,1,G1
C-890,"2,2',4,4',5,6'-hexachlorobiphenyl",InChI=1S/C12H4Cl6/c13-5-1-10(17)12(11(18)2-5)6-3-8(15)9(16)4-7(6)14/h1-4H,QXZHEJWDLVUFFB-UHFFFAOYSA-N,ClC1=CC(=C(C(=C1)Cl)C2=CC(=C(Cl)C=C2Cl)Cl)Cl,-8.12,0.0,1,G1
C-891,n1-(2-chlorophenyl)-2-methylsulfanilamide; 2-chloro-1-(4-amino-2-methylphenylsulfonamido)benzene,"InChI=1S/C13H13ClN2O2S/c1-9-8-10(15)6-7-13(9)19(17,18)16-12-5-3-2-4-11(12)14/h2-8,16H,15H2,1H3",RYGRTXQPJZRDAK-UHFFFAOYSA-N,CC1=C(C=CC(=C1)N)[S](=O)(=O)NC2=C(Cl)C=CC=C2,-5.05,0.0,1,G1
C-893,"2,2',3,4,4',6'-hexachlorobiphenyl",InChI=1S/C12H4Cl6/c13-5-3-8(15)10(9(16)4-5)6-1-2-7(14)12(18)11(6)17/h1-4H,XBBRGUHRZBZMPP-UHFFFAOYSA-N,ClC1=CC(=C(C(=C1)Cl)C2=CC=C(Cl)C(=C2Cl)Cl)Cl,-8.24,0.0,1,G1
C-894,griseofulvin,"InChI=1S/C17H17ClO6/c1-8-5-9(19)6-12(23-4)17(8)16(20)13-10(21-2)7-11(22-3)14(18)15(13)24-17/h6-8H,5H2,1-4H3",DDUHZTYCFQRHIY-UHFFFAOYSA-N,COC1=CC(=C2C(=O)C3(OC2=C1Cl)C(C)CC(=O)C=C3OC)OC,-3.97,0.5572025364862104,3,G4
C-896,"2,3,3',5,5',6-hexachlorobiphenyl",InChI=1S/C12H4Cl6/c13-6-1-5(2-7(14)3-6)10-11(17)8(15)4-9(16)12(10)18/h1-4H,ZEATXTCWXKQPHO-UHFFFAOYSA-N,ClC1=CC(=CC(=C1)C2=C(Cl)C(=CC(=C2Cl)Cl)Cl)Cl,-8.27,0.0,1,G1
C-898,"2,2',3,4,5',6-hexachlorobiphenyl",InChI=1S/C12H4Cl6/c13-5-1-2-7(14)6(3-5)10-8(15)4-9(16)11(17)12(10)18/h1-4H,CXXRQFOKRZJAJA-UHFFFAOYSA-N,ClC1=CC(=C(Cl)C=C1)C2=C(Cl)C=C(Cl)C(=C2Cl)Cl,-8.01,0.0,1,G1
C-899,"2,2',3,3',4,6'-hexachlorobiphenyl",InChI=1S/C12H4Cl6/c13-6-3-4-7(14)11(17)9(6)5-1-2-8(15)12(18)10(5)16/h1-4H,OKBJVIVEFXPEOU-UHFFFAOYSA-N,ClC1=CC=C(C(=C1Cl)Cl)C2=C(Cl)C(=CC=C2Cl)Cl,-7.65,0.0,1,G1
C-900,"2,2',4,4',6,6'-hexachlorobiphenyl",InChI=1S/C12H4Cl6/c13-5-1-7(15)11(8(16)2-5)12-9(17)3-6(14)4-10(12)18/h1-4H,ICOAEPDGFWLUTI-UHFFFAOYSA-N,ClC1=CC(=C(C(=C1)Cl)C2=C(Cl)C=C(Cl)C=C2Cl)Cl,-8.71,0.11850000000000005,2,G3
C-901,"1,5-bis(butanoyloxymethyl)allopurinol","InChI=1S/C15H20N4O5/c1-3-5-12(20)23-9-18-8-16-14-11(15(18)22)7-17-19(14)10-24-13(21)6-4-2/h7-8H,3-6,9-10H2,1-2H3",QQAOTACZYKWDQH-UHFFFAOYSA-N,CCCC(=O)OCN1C=NC2=C(C=N[N]2COC(=O)CCC)C1=O,-3.83,0.0,1,G1
C-903,"2,2',3,3',4,6-hexachlorobiphenyl",InChI=1S/C12H4Cl6/c13-6-3-1-2-5(10(6)16)9-7(14)4-8(15)11(17)12(9)18/h1-4H,WDLTVNWWEZJMPF-UHFFFAOYSA-N,ClC1=CC=CC(=C1Cl)C2=C(Cl)C=C(Cl)C(=C2Cl)Cl,-8.48,0.0,1,G1
C-904,"2,2',3,4,5,6'-hexachlorobiphenyl",InChI=1S/C12H4Cl6/c13-6-2-1-3-7(14)9(6)5-4-8(15)11(17)12(18)10(5)16/h1-4H,UQPQKLGBEKEZBV-UHFFFAOYSA-N,ClC1=C(Cl)C(=C(Cl)C(=C1)C2=C(Cl)C=CC=C2Cl)Cl,-8.13,0.0,1,G1
C-905,"2,2',3,3',5,6'-hexachlorobiphenyl",InChI=1S/C12H4Cl6/c13-5-3-6(11(17)9(16)4-5)10-7(14)1-2-8(15)12(10)18/h1-4H,UUTNFLRSJBQQJM-UHFFFAOYSA-N,ClC1=CC(=C(Cl)C(=C1)C2=C(Cl)C(=CC=C2Cl)Cl)Cl,-7.82,0.0,1,G1
C-907,triamcinolone hexacetonide,"InChI=1S/C30H41FO7/c1-25(2,3)15-24(35)36-16-22(34)30-23(37-26(4,5)38-30)13-20-19-9-8-17-12-18(32)10-11-27(17,6)29(19,31)21(33)14-28(20,30)7/h10-12,19-21,23,33H,8-9,13-16H2,1-7H3",TZIZWYVVGLXXFV-UHFFFAOYSA-N,CC(C)(C)CC(=O)OCC(=O)C12OC(C)(C)OC1CC3C4CCC5=CC(=O)C=CC5(C)C4(F)C(O)CC23C,-5.12,0.0,1,G1
C-908,"2,2',3,3',5,6-hexachlorobiphenyl",InChI=1S/C12H4Cl6/c13-6-3-1-2-5(10(6)16)9-11(17)7(14)4-8(15)12(9)18/h1-4H,RVWLHPJFOKUPNM-UHFFFAOYSA-N,ClC1=CC=CC(=C1Cl)C2=C(Cl)C(=CC(=C2Cl)Cl)Cl,-8.6,0.34999999999999964,2,G3
C-911,sulfacytine;  1-ethyl-4-sulfapyrimidine-2-one,"InChI=1S/C12H14N4O3S/c1-2-16-8-7-11(14-12(16)17)15-20(18,19)10-5-3-9(13)4-6-10/h3-8H,2,13H2,1H3,(H,14,15,17)",SIBQAECNSSQUOD-UHFFFAOYSA-N,CCN1C=CC(=NC1=O)N[S](=O)(=O)C2=CC=C(N)C=C2,-2.23,0.0,1,G1
C-913,5-methyl-2-(4-nitrophenylsulfonamido)pyridine;  n-(5-methylpyridin-2-yl)-4-nitrobenzenesulfonamide,"InChI=1S/C12H11N3O4S/c1-9-2-7-12(13-8-9)14-20(18,19)11-5-3-10(4-6-11)15(16)17/h2-8H,1H3,(H,13,14)",GSASPEJNWFVWQK-UHFFFAOYSA-N,CC1=CC=C(N[S](=O)(=O)C2=CC=C(C=C2)[N+]([O-])=O)N=C1,-4.29,0.0,1,G1
C-916,n1-(4-nitrophenyl)sulfanilamide,"InChI=1S/C12H11N3O4S/c13-9-1-7-12(8-2-9)20(18,19)14-10-3-5-11(6-4-10)15(16)17/h1-8,14H,13H2",ACJNABKXDUDYAM-UHFFFAOYSA-N,NC1=CC=C(C=C1)[S](=O)(=O)NC2=CC=C(C=C2)[N+]([O-])=O,-3.94,0.0,1,G1
C-917,"1,2,4-trichlorodibenzodioxin",InChI=1S/C12H5Cl3O2/c13-6-5-7(14)11-12(10(6)15)17-9-4-2-1-3-8(9)16-11/h1-5H,HRVUKLBFRPWXPJ-UHFFFAOYSA-N,ClC1=C(Cl)C2=C(OC3=C(O2)C=CC=C3)C(=C1)Cl,-7.53,0.02499999999999991,2,G3
C-919,chlordiazepoxide,"InChI=1S/C16H14ClN3O/c1-18-15-10-20(21)16(11-5-3-2-4-6-11)13-9-12(17)7-8-14(13)19-15/h2-9H,10H2,1H3,(H,18,19)",ANTSCNMPPGJYLG-UHFFFAOYSA-N,CNC1=NC2=CC=C(Cl)C=C2C(=[N+]([O-])C1)C3=CC=CC=C3,-4.48,0.0,1,G1
C-920,4-chloro-n1-(2-chlorophenyl)sulfanilamide,"InChI=1S/C12H10Cl2N2O2S/c13-8-1-4-10(5-2-8)16-19(17,18)12-6-3-9(15)7-11(12)14/h1-7,16H,15H2",RLAKZPRFFJDPOI-UHFFFAOYSA-N,NC1=CC=C(C(=C1)Cl)[S](=O)(=O)NC2=CC=C(Cl)C=C2,-4.59,0.0,1,G1
C-921,"n1-(2,5-dichlorophenyl)sulfanilamide","InChI=1S/C12H10Cl2N2O2S/c13-8-1-6-11(14)12(7-8)16-19(17,18)10-4-2-9(15)3-5-10/h1-7,16H,15H2",PQUPSQYCUSDJGL-UHFFFAOYSA-N,NC1=CC=C(C=C1)[S](=O)(=O)NC2=CC(=CC=C2Cl)Cl,-4.4,0.0,1,G1
C-922,"n1-(2,3-dichlorophenyl)sulfanilamide","InChI=1S/C12H10Cl2N2O2S/c13-10-2-1-3-11(12(10)14)16-19(17,18)9-6-4-8(15)5-7-9/h1-7,16H,15H2",DUAASAVOKXBDLI-UHFFFAOYSA-N,NC1=CC=C(C=C1)[S](=O)(=O)NC2=CC=CC(=C2Cl)Cl,-4.73,0.0,1,G1
C-923,pefloxacin,"InChI=1S/C17H20FN3O3/c1-3-20-10-12(17(23)24)16(22)11-8-13(18)15(9-14(11)20)21-6-4-19(2)5-7-21/h8-10H,3-7H2,1-2H3,(H,23,24)",FHFYDNQZQSQIAI-UHFFFAOYSA-N,CCN1C=C(C(O)=O)C(=O)C2=C1C=C(N3CCN(C)CC3)C(=C2)F,-1.47,0.0,1,G1
C-925,"2-hydroxy-n-(3,5-dimethyl-4-isoxazolyl)-1,4-naphthoquinone-4-imine","InChI=1S/C15H12N2O3/c1-8-14(9(2)20-17-8)16-12-7-13(18)15(19)11-6-4-3-5-10(11)12/h3-7,18H,1-2H3",JNQQEDYUWRZNDU-UHFFFAOYSA-N,CC1=C(N=C2C=C(O)C(=O)C3=C2C=CC=C3)C(=NO1)C,-3.89,0.0,1,G1
C-926,"7-hydroxy-4-oxo-4,5,6,7-tetrahydro-2-sulfamoylthieno[3,2-b]thiopyran","InChI=1S/C7H9NO4S3/c8-15(11,12)6-3-5-7(13-6)4(9)1-2-14(5)10/h3-4,9H,1-2H2,(H2,8,11,12)",XEROSHXMTSNDBW-UHFFFAOYSA-N,N[S](=O)(=O)C1=CC2=C(S1)C(O)CC[S]2=O,-1.57,0.0,1,G1
C-927,oryzalin;  surflan,"InChI=1S/C12H18N4O6S/c1-3-5-14(6-4-2)12-10(15(17)18)7-9(23(13,21)22)8-11(12)16(19)20/h7-8H,3-6H2,1-2H3,(H2,13,21,22)",UNAHYJYOSSSJHH-UHFFFAOYSA-N,CCCN(CCC)C1=C(C=C(C=C1[N+]([O-])=O)[S](N)(=O)=O)[N+]([O-])=O,-5.13,0.6642698849112462,4,G4
C-928,n1-(2-nitrophenyl)sulfanilamide,"InChI=1S/C12H11N3O4S/c13-9-5-7-10(8-6-9)20(18,19)14-11-3-1-2-4-12(11)15(16)17/h1-8,14H,13H2",BRVWBJZREZWBRX-UHFFFAOYSA-N,NC1=CC=C(C=C1)[S](=O)(=O)NC2=CC=CC=C2[N+]([O-])=O,-4.49,0.0,1,G1
C-929,2-chloro-n1-(2-chlorophenyl)sulfanilamide,"InChI=1S/C12H10Cl2N2O2S/c13-9-3-1-2-4-11(9)16-19(17,18)12-6-5-8(15)7-10(12)14/h1-7,16H,15H2",WLGLMOOOFGAYSX-UHFFFAOYSA-N,NC1=CC(=C(C=C1)[S](=O)(=O)NC2=CC=CC=C2Cl)Cl,-5.11,0.0,1,G1
C-930,benalaxyl,"InChI=1S/C20H23NO3/c1-14-9-8-10-15(2)19(14)21(16(3)20(23)24-4)18(22)13-17-11-6-5-7-12-17/h5-12,16H,13H2,1-4H3",CJPQIRJHIZUAQP-UHFFFAOYSA-N,COC(=O)C(C)N(C(=O)CC1=CC=CC=C1)C2=C(C)C=CC=C2C,-3.94,0.0,1,G1
C-932,n1-(3-chloro-2-methoxyphenyl)sulfanilamide; 1-sulfanilamido-3-chloro-2-methoxybenzene; 1-sulfa-3-chloro-2-methoxybenzene,"InChI=1S/C13H13ClN2O3S/c1-19-13-11(14)3-2-4-12(13)16-20(17,18)10-7-5-9(15)6-8-10/h2-8,16H,15H2,1H3",GUQMUFCFDMUPMN-UHFFFAOYSA-N,COC1=C(N[S](=O)(=O)C2=CC=C(N)C=C2)C=CC=C1Cl,-4.15,0.0,1,G1
C-937,loxapine,"InChI=1S/C18H18ClN3O/c1-21-8-10-22(11-9-21)18-14-12-13(19)6-7-16(14)23-17-5-3-2-4-15(17)20-18/h2-7,12H,8-11H2,1H3",XJGVXQDUIWGIRW-UHFFFAOYSA-N,CN1CCN(CC1)C2=NC3=C(OC4=C2C=C(Cl)C=C4)C=CC=C3,-4.42,0.0,1,G1
C-938,fenpropathrin,"InChI=1S/C22H23NO3/c1-21(2)19(22(21,3)4)20(24)26-18(14-23)15-9-8-12-17(13-15)25-16-10-6-5-7-11-16/h5-13,18-19H,1-4H3",XQUXKZZNEFRCAW-UHFFFAOYSA-N,CC1(C)C(C(=O)OC(C#N)C2=CC(=CC=C2)OC3=CC=CC=C3)C1(C)C,-6.03,0.6820499999999998,2,G2
C-939,3-(acetyloxymethyl)phenytoin,"InChI=1S/C18H16N2O4/c1-13(21)24-12-20-16(22)18(19-17(20)23,14-8-4-2-5-9-14)15-10-6-3-7-11-15/h2-11H,12H2,1H3,(H,19,23)",FBFCVJNZKBVVRP-UHFFFAOYSA-N,CC(=O)OCN1C(=O)NC(C1=O)(C2=CC=CC=C2)C3=CC=CC=C3,-4.47,0.0,1,G1
C-941,n-(methyl)thalidomide,"InChI=1S/C14H12N2O4/c1-15-11(17)7-6-10(14(15)20)16-12(18)8-4-2-3-5-9(8)13(16)19/h2-5,10H,6-7H2,1H3",IYYPLFUVXTVBLD-UHFFFAOYSA-N,CN1C(=O)CCC(N2C(=O)C3=C(C=CC=C3)C2=O)C1=O,-2.99,0.0,1,G1
C-942,n1-(4-iodophenyl)sulfanilamide,"InChI=1S/C12H11IN2O2S/c13-9-1-5-11(6-2-9)15-18(16,17)12-7-3-10(14)4-8-12/h1-8,15H,14H2",GNYYVWOTRVNKCO-UHFFFAOYSA-N,NC1=CC=C(C=C1)[S](=O)(=O)NC2=CC=C(I)C=C2,-4.52,0.0,1,G1
C-943,"2,3,3',4,4',5,5'-heptachlorobiphenyl",InChI=1S/C12H3Cl7/c13-6-1-4(2-7(14)10(6)17)5-3-8(15)11(18)12(19)9(5)16/h1-3H,XUAWBXBYHDRROL-UHFFFAOYSA-N,ClC1=CC(=CC(=C1Cl)Cl)C2=C(Cl)C(=C(Cl)C(=C2)Cl)Cl,-8.72,0.0,1,G1
C-944,azinphos-methyl;  methyl-azinphos,"InChI=1S/C10H12N3O3PS2/c1-15-17(18,16-2)19-7-13-10(14)8-5-3-4-6-9(8)11-12-13/h3-6H,7H2,1-2H3",CJJOSEISRRTUQB-UHFFFAOYSA-N,CO[P](=S)(OC)SCN1N=NC2=CC=CC=C2C1=O,-4.04,0.07050000000000001,2,G3
C-945,mebendazole,"InChI=1S/C16H13N3O3/c1-22-16(21)19-15-17-12-8-7-11(9-13(12)18-15)14(20)10-5-3-2-4-6-10/h2-9H,1H3,(H2,17,18,19,21)",OPXLLQIJSORQAM-UHFFFAOYSA-N,COC(=O)NC1=NC2=CC(=CC=C2[NH]1)C(=O)C3=CC=CC=C3,-3.88,0.13139999999999996,2,G3
C-946,nimesulide;  4-nitro-2-phenoxymethanesulfonanilide,"InChI=1S/C13H12N2O5S/c1-21(18,19)14-12-8-7-10(15(16)17)9-13(12)20-11-5-3-2-4-6-11/h2-9,14H,1H3",HYWYRSMBCFDLJT-UHFFFAOYSA-N,C[S](=O)(=O)NC1=C(OC2=CC=CC=C2)C=C(C=C1)[N+]([O-])=O,-1.65,0.0,1,G1
C-948,"2-benzyl-3-methyl-2,3-dihydro-1h-imidazo[5,1b]quinazolin-9-one; 2-benzyl-3-methylimidazoquinazolone","InChI=1S/C18H17N3O/c1-13-17-19-16-10-6-5-9-15(16)18(22)21(17)12-20(13)11-14-7-3-2-4-8-14/h2-10,13H,11-12H2,1H3",PAEHEULFAIRJNM-UHFFFAOYSA-N,CC1N(CN2C(=O)C3=C(C=CC=C3)N=C12)CC4=CC=CC=C4,-4.0,0.0,1,G1
C-949,oxyfluorfen,"InChI=1S/C15H11ClF3NO4/c1-2-23-14-8-10(4-5-12(14)20(21)22)24-13-6-3-9(7-11(13)16)15(17,18)19/h3-8H,2H2,1H3",OQMBBFQZGJFLBU-UHFFFAOYSA-N,CCOC1=C(C=CC(=C1)OC2=C(Cl)C=C(C=C2)C(F)(F)F)[N+]([O-])=O,-6.49,0.03399999999999981,2,G3
C-950,4-(5-ethyl-3-methylisoxazol-4-ylimino)-2-hydroxy-4h-naphthalen-1-one,"InChI=1S/C16H14N2O3/c1-3-14-15(9(2)18-21-14)17-12-8-13(19)16(20)11-7-5-4-6-10(11)12/h4-8,19H,3H2,1-2H3",TWUYULBKODYURR-UHFFFAOYSA-N,CCC1=C(N=C2C=C(O)C(=O)C3=C2C=CC=C3)C(=NO1)C,-2.72,0.0,1,G1
C-954,fenbuconazole,"InChI=1S/C19H17ClN4/c20-18-8-6-16(7-9-18)10-11-19(12-21,13-24-15-22-14-23-24)17-4-2-1-3-5-17/h1-9,14-15H,10-11,13H2",RQDJADAKIFFEKQ-UHFFFAOYSA-N,ClC1=CC=C(CCC(C[N]2C=NC=N2)(C#N)C3=CC=CC=C3)C=C1,-6.23,0.0,1,G1
C-955,n-(4-ethoxyphenyl)-4-nitrobenzenesulfonamide,"InChI=1S/C14H14N2O5S/c1-2-21-13-7-3-11(4-8-13)15-22(19,20)14-9-5-12(6-10-14)16(17)18/h3-10,15H,2H2,1H3",BUCSZBGRXQNNMQ-UHFFFAOYSA-N,CCOC1=CC=C(N[S](=O)(=O)C2=CC=C(C=C2)[N+]([O-])=O)C=C1,-4.72,0.0,1,G1
C-958,pentoxazone,"InChI=1S/C17H17ClFNO4/c1-9(2)15-16(21)20(17(22)24-15)13-8-14(11(18)7-12(13)19)23-10-5-3-4-6-10/h7-8,10H,3-6H2,1-2H3",JZPKLLLUDLHCEL-UHFFFAOYSA-N,CC(C)=C1OC(=O)N(C1=O)C2=C(F)C=C(Cl)C(=C2)OC3CCCC3,-6.21,0.0,1,G1
C-959,3-(propanoyloxymethyl)phenytoin,"InChI=1S/C19H18N2O4/c1-2-16(22)25-13-21-17(23)19(20-18(21)24,14-9-5-3-6-10-14)15-11-7-4-8-12-15/h3-12H,2,13H2,1H3,(H,20,24)",FBQTWGHLMQUOQL-UHFFFAOYSA-N,CCC(=O)OCN1C(=O)NC(C1=O)(C2=CC=CC=C2)C3=CC=CC=C3,-4.91,0.0,1,G1
C-960,octachloronaphthalene,InChI=1S/C10Cl8/c11-3-1-2(5(13)9(17)7(3)15)6(14)10(18)8(16)4(1)12,RTNLUFLDZOAXIC-UHFFFAOYSA-N,ClC1=C(Cl)C2=C(C(=C1Cl)Cl)C(=C(Cl)C(=C2Cl)Cl)Cl,-9.7,0.0,1,G1
C-961,"2,2',3,4,5,5',6-heptachlorobiphenyl",InChI=1S/C12H3Cl7/c13-4-1-2-6(14)5(3-4)7-8(15)10(17)12(19)11(18)9(7)16/h1-3H,PYZHTHZEHQHHEN-UHFFFAOYSA-N,ClC1=CC=C(Cl)C(=C1)C2=C(Cl)C(=C(Cl)C(=C2Cl)Cl)Cl,-8.46,0.441898942695675,3,G5
C-962,n1-(2-nitrophenyl)-2-methylsulfanilamide;  2-nitro-1-(4-amino-2-methylphenylsulfonamido)benzene,"InChI=1S/C13H13N3O4S/c1-9-8-10(14)6-7-13(9)21(19,20)15-11-4-2-3-5-12(11)16(17)18/h2-8,15H,14H2,1H3",HZKCDBKRNMDOJB-UHFFFAOYSA-N,CC1=C(C=CC(=C1)N)[S](=O)(=O)NC2=C(C=CC=C2)[N+]([O-])=O,-4.51,0.0,1,G1
C-964,"7,12-dimethylbenz[a]anthracene","InChI=1S/C20H16/c1-13-16-8-5-6-9-17(16)14(2)20-18(13)12-11-15-7-3-4-10-19(15)20/h3-12H,1-2H3",ARSRBNBHOADGJU-UHFFFAOYSA-N,CC1=C2C=CC3=C(C=CC=C3)C2=C(C)C4=C1C=CC=C4,-6.78,0.1628741845720186,3,G5
C-966,"szi-121;  3-(2-chlorophenyl)-6-(2,6-difluorophenyl)-1,2,4,5-tetrazine",InChI=1S/C14H7ClF2N4/c15-9-5-2-1-4-8(9)13-18-20-14(21-19-13)12-10(16)6-3-7-11(12)17/h1-7H,SWBHWUYHHJCADA-UHFFFAOYSA-N,FC1=C(C(=CC=C1)F)C2=NN=C(N=N2)C3=C(Cl)C=CC=C3,-6.12,0.0,1,G1
C-967,clonazepam,"InChI=1S/C15H10ClN3O3/c16-12-4-2-1-3-10(12)15-11-7-9(19(21)22)5-6-13(11)18-14(20)8-17-15/h1-7H,8H2,(H,18,20)",DGBIGWXXNGSACT-UHFFFAOYSA-N,[O-][N+](=O)C1=CC2=C(NC(=O)CN=C2C3=CC=CC=C3Cl)C=C1,-3.5,0.0,1,G1
C-968,cinnarizine;  stugeron,"InChI=1S/C26H28N2/c1-4-11-23(12-5-1)13-10-18-27-19-21-28(22-20-27)26(24-14-6-2-7-15-24)25-16-8-3-9-17-25/h1-17,26H,18-22H2/b13-10+",DERZBLKQOCDDDZ-JLHYYAGUSA-N,C1CN(CCN1C\C=C\C2=CC=CC=C2)C(C3=CC=CC=C3)C4=CC=CC=C4,-4.2,0.7543000000000002,2,G2
C-969,"n-(3-methyl-5-propylisoxazol-4-yl)-2-hydroxy-1,4-naphthoquinone-4-imine","InChI=1S/C17H16N2O3/c1-3-6-15-16(10(2)19-22-15)18-13-9-14(20)17(21)12-8-5-4-7-11(12)13/h4-5,7-9,20H,3,6H2,1-2H3",JSAKUYFJPZQXBF-UHFFFAOYSA-N,CCCC1=C(N=C2C=C(O)C(=O)C3=C2C=CC=C3)C(=NO1)C,-3.7,0.0,1,G1
C-970,3-(butanoyloxymethyl)phenytoin,"InChI=1S/C20H20N2O4/c1-2-9-17(23)26-14-22-18(24)20(21-19(22)25,15-10-5-3-6-11-15)16-12-7-4-8-13-16/h3-8,10-13H,2,9,14H2,1H3,(H,21,25)",UPQWMVAELITTGQ-UHFFFAOYSA-N,CCCC(=O)OCN1C(=O)NC(C1=O)(C2=CC=CC=C2)C3=CC=CC=C3,-5.07,0.0,1,G1