ID,Name,InChI,InChIKey,SMILES,Solubility,SD,Occurrences,Group
C-2481,tecloftalam,"InChI=1S/C14H5Cl6NO3/c15-4-2-1-3-5(8(4)16)21-13(22)6-7(14(23)24)10(18)12(20)11(19)9(6)17/h1-3H,(H,21,22)(H,23,24)",ROZUQUDEWZIBHV-UHFFFAOYSA-N,OC(=O)C1=C(C(=O)NC2=CC=CC(=C2Cl)Cl)C(=C(Cl)C(=C1Cl)Cl)Cl,-4.51,0.0,1,G1
C-2482,naproxen-derivat 3 d,"InChI=1S/C25H27NO5/c1-17(19-8-9-21-16-22(29-2)11-10-20(21)15-19)24(27)30-12-13-31-25(28)23(26)14-18-6-4-3-5-7-18/h3-11,15-17,23H,12-14,26H2,1-2H3",MZAKIGQNEBYEKL-UHFFFAOYSA-N,COC1=CC=C2C=C(C=CC2=C1)C(C)C(=O)OCCOC(=O)C(N)CC3=CC=CC=C3,-3.75,0.0,1,G1
C-2483,"6,7-diphenylpteridin-4-one","InChI=1S/C18H12N4O/c23-18-16-17(19-11-20-18)22-15(13-9-5-2-6-10-13)14(21-16)12-7-3-1-4-8-12/h1-11H,(H,19,20,22,23)",UMUYUDSQRKTBKA-UHFFFAOYSA-N,O=C1NC=NC2=C1N=C(C3=CC=CC=C3)C(=N2)C4=CC=CC=C4,-3.18,0.0,1,G1
C-2484,alpha-cyclodextrin;  alfadex,"InChI=1S/C36H60O30/c37-1-7-25-13(43)19(49)31(55-7)62-26-8(2-38)57-33(21(51)15(26)45)64-28-10(4-40)59-35(23(53)17(28)47)66-30-12(6-42)60-36(24(54)18(30)48)65-29-11(5-41)58-34(22(52)16(29)46)63-27-9(3-39)56-32(61-25)20(50)14(27)44/h7-54H,1-6H2",HFHDHCJBZVLPGP-UHFFFAOYSA-N,OCC1OC2OC3C(O)C(O)C(OC3CO)OC4C(O)C(O)C(OC4CO)OC5C(O)C(O)C(OC5CO)OC6C(O)C(O)C(OC6CO)OC7C(O)C(O)C(OC7CO)OC1C(O)C2O,-0.91,0.0,1,G1
C-2485,n1-(1-benzyl-2-oxopyrimidin-4-yl)sulfanilamide;  1-benzyl-4-sulfapyrimidin-2-one,"InChI=1S/C17H16N4O3S/c18-14-6-8-15(9-7-14)25(23,24)20-16-10-11-21(17(22)19-16)12-13-4-2-1-3-5-13/h1-11H,12,18H2,(H,19,20,22)",HLCYDXRGEPUIOB-UHFFFAOYSA-N,NC1=CC=C(C=C1)[S](=O)(=O)NC2=NC(=O)N(CC3=CC=CC=C3)C=C2,-4.8,0.0,1,G1
C-2486,"5-(4-fluorobenzenesulfonylimido)-4-methyl-2-sulfonamido-delta2-1,3,4-thiadiazoline","InChI=1S/C9H9FN4O4S3/c1-14-8(19-9(12-14)20(11,15)16)13-21(17,18)7-4-2-6(10)3-5-7/h2-5H,1H3,(H2,11,15,16)",YTIHPYNMOXPHQK-UHFFFAOYSA-N,CN1N=C(SC1=N[S](=O)(=O)C2=CC=C(F)C=C2)[S](N)(=O)=O,-2.03,0.0,1,G1
C-2487,flumioxazin,"InChI=1S/C19H15FN2O4/c1-2-7-21-15-9-14(13(20)8-16(15)26-10-17(21)23)22-18(24)11-5-3-4-6-12(11)19(22)25/h1,8-9H,3-7,10H2",FOUWCSDKDDHKQP-UHFFFAOYSA-N,FC1=C(C=C2N(CC#C)C(=O)COC2=C1)N3C(=O)C4=C(CCCC4)C3=O,-5.3,0.0,1,G1
C-2488,n-[(2-methylamino)acetyl]dorzolamide,"InChI=1S/C13H21N3O5S3/c1-4-16(11(17)7-15-3)10-5-8(2)23(18,19)13-9(10)6-12(22-13)24(14,20)21/h6,8,10,15H,4-5,7H2,1-3H3,(H2,14,20,21)",AEDNMSDIHOZVTQ-UHFFFAOYSA-N,CCN(C1CC(C)[S](=O)(=O)C2=C1C=C(S2)[S](N)(=O)=O)C(=O)CNC,-1.21,0.0,1,G1
C-2489,"5-(4-aminobenzenesulfonylimido)-4-methyl-delta2-1,3,4-thiadiazoline-2-sulfonamide","InChI=1S/C9H11N5O4S3/c1-14-8(19-9(12-14)20(11,15)16)13-21(17,18)7-4-2-6(10)3-5-7/h2-5H,10H2,1H3,(H2,11,15,16)",BKCXBMXTXLGZCV-UHFFFAOYSA-N,CN1N=C(SC1=N[S](=O)(=O)C2=CC=C(N)C=C2)[S](N)(=O)=O,-2.5,0.0,1,G1
C-2490,norethindrone  biphenyl-4-carboxylate,"InChI=1S/C33H34O3/c1-3-33(36-31(35)24-11-9-23(10-12-24)22-7-5-4-6-8-22)20-18-30-29-15-13-25-21-26(34)14-16-27(25)28(29)17-19-32(30,33)2/h1,4-12,21,27-30H,13-20H2,2H3",PEZADNLTLSQNPI-UHFFFAOYSA-N,CC12CCC3C(CCC4=CC(=O)CCC34)C1CCC2(OC(=O)C5=CC=C(C=C5)C6=CC=CC=C6)C#C,-8.11,0.0,1,G1
C-2491,"5-(3-aminobenzenesulfonylimido)-4-methyl-delta2-1,3,4-thiadiazoline-2-sulfonamide","InChI=1S/C9H11N5O4S3/c1-14-8(19-9(12-14)20(11,15)16)13-21(17,18)7-4-2-3-6(10)5-7/h2-5H,10H2,1H3,(H2,11,15,16)",KVTLULGYZIGEGB-UHFFFAOYSA-N,CN1N=C(SC1=N[S](=O)(=O)C2=CC=CC(=C2)N)[S](N)(=O)=O,-2.45,0.0,1,G1
C-2492,"5-(2,4,6-trimethylbenzenesulfonamido)-1,3,4-thiadiazole-2-sulfonamide","InChI=1S/C11H14N4O4S3/c1-6-4-7(2)9(8(3)5-6)22(18,19)15-10-13-14-11(20-10)21(12,16)17/h4-5H,1-3H3,(H,13,15)(H2,12,16,17)",NMYPLEDXWFOEEJ-UHFFFAOYSA-N,CC1=CC(=C(C(=C1)C)[S](=O)(=O)NC2=NN=C(S2)[S](N)(=O)=O)C,-2.7,0.0,1,G1
C-2493,indapamide;  1-(3-aminosulfonyl-4-chloro)benzoylamino-2-methylindoline,"InChI=1S/C16H16ClN3O3S/c1-10-8-11-4-2-3-5-14(11)20(10)19-16(21)12-6-7-13(17)15(9-12)24(18,22)23/h2-7,9-10H,8H2,1H3,(H,19,21)(H2,18,22,23)",NDDAHWYSQHTHNT-UHFFFAOYSA-N,CC1CC2=C(C=CC=C2)N1NC(=O)C3=CC(=C(Cl)C=C3)[S](N)(=O)=O,-3.79,0.10199999999999987,2,G3
C-2494,aztreonam,"InChI=1S/C13H17N5O8S2/c1-5-7(10(20)18(5)28(23,24)25)16-9(19)8(6-4-27-12(14)15-6)17-26-13(2,3)11(21)22/h4-5,7H,1-3H3,(H2,14,15)(H,16,19)(H,21,22)(H,23,24,25)/b17-8-",WZPBZJONDBGPKJ-IUXPMGMMSA-N,CC1C(NC(=O)C(=N\OC(C)(C)C(O)=O)/C2=CSC(=N2)N)C(=O)N1[S](O)(=O)=O,-1.64,0.0,1,G1
C-2495,naproxen-derivat 3 i,"InChI=1S/C25H27NO5/c1-16(19-9-10-21-15-22(29-3)12-11-20(21)14-19)24(27)30-17(2)31-25(28)23(26)13-18-7-5-4-6-8-18/h4-12,14-17,23H,13,26H2,1-3H3",AJWHQEKVIAEOBU-UHFFFAOYSA-N,COC1=CC=C2C=C(C=CC2=C1)C(C)C(=O)OC(C)OC(=O)C(N)CC3=CC=CC=C3,-3.5,0.0,1,G1
C-2496,"2-sulfamoyl-5-(4-bromobenzenesulfonamido)-1,3,4-thiadiazole","InChI=1S/C8H7BrN4O4S3/c9-5-1-3-6(4-2-5)20(16,17)13-7-11-12-8(18-7)19(10,14)15/h1-4H,(H,11,13)(H2,10,14,15)",QGHSHYIQOYQWHW-UHFFFAOYSA-N,N[S](=O)(=O)C1=NN=C(N[S](=O)(=O)C2=CC=C(Br)C=C2)S1,-2.13,0.0,1,G1
C-2497,"5-(4-chlorobenzenesulfonylimido)-4-methyl-2-sulfonamido-delta2-1,3,4-thiadiazoline","InChI=1S/C9H9ClN4O4S3/c1-14-8(19-9(12-14)20(11,15)16)13-21(17,18)7-4-2-6(10)3-5-7/h2-5H,1H3,(H2,11,15,16)",SYUHFMCJTDEIBB-UHFFFAOYSA-N,CN1N=C(SC1=N[S](=O)(=O)C2=CC=C(Cl)C=C2)[S](N)(=O)=O,-2.44,0.0,1,G1
C-2498,2-chloro-4-[(4-'acetylpiperazin-1'-yl)acryloyl]phenyl   benzodioxan-6''-yl  sulfide,"InChI=1S/C23H23ClN2O4S/c1-16(27)25-8-10-26(11-9-25)23(28)7-3-17-2-6-22(19(24)14-17)31-18-4-5-20-21(15-18)30-13-12-29-20/h2-7,14-15H,8-13H2,1H3/b7-3+",PZJWSJORJOUILO-XVNBXDOJSA-N,CC(=O)N1CCN(CC1)C(=O)/C=C/C2=CC(=C(SC3=CC4=C(OCCO4)C=C3)C=C2)Cl,-2.05,0.0,1,G1
C-2499,diflufenican,"InChI=1S/C19H11F5N2O2/c20-12-6-7-16(15(21)10-12)26-17(27)14-5-2-8-25-18(14)28-13-4-1-3-11(9-13)19(22,23)24/h1-10H,(H,26,27)",WYEHFWKAOXOVJD-UHFFFAOYSA-N,FC1=CC=C(NC(=O)C2=CC=CN=C2OC3=CC=CC(=C3)C(F)(F)F)C(=C1)F,-6.9,0.0,1,G1
C-2500,"4-(6,7-dimethoxyquinazolin-4-yl)piperazine-1-carbothioic acid (furan-2-ylmethyl)amide","InChI=1S/C20H23N5O3S/c1-26-17-10-15-16(11-18(17)27-2)22-13-23-19(15)24-5-7-25(8-6-24)20(29)21-12-14-4-3-9-28-14/h3-4,9-11,13H,5-8,12H2,1-2H3,(H,21,29)",CIWLFJDHBPQVQC-UHFFFAOYSA-N,COC1=CC2=C(C=C1OC)C(=NC=N2)N3CCN(CC3)C(=S)NCC4=CC=CO4,-5.63,0.0,1,G1
C-2501,"4-(6,7-dimethoxyquinazolin-4-yl)piperazine-1-carboxylic acid thiophen-3-ylamide","InChI=1S/C19H21N5O3S/c1-26-16-9-14-15(10-17(16)27-2)20-12-21-18(14)23-4-6-24(7-5-23)19(25)22-13-3-8-28-11-13/h3,8-12H,4-7H2,1-2H3,(H,22,25)",SACBQFMSEKIABM-UHFFFAOYSA-N,COC1=CC2=C(C=C1OC)C(=NC=N2)N3CCN(CC3)C(=O)NC4=CSC=C4,-5.3,0.0,1,G1
C-2502,n4-[2-(nicotinoylamino)pyrimidin-4-yl]sulfanilamide;  2-(nicotinoylamino)-4-(4-sulfamoylphenylamino)pyrimidine,"InChI=1S/C16H14N6O3S/c17-26(24,25)13-5-3-12(4-6-13)20-14-7-9-19-16(21-14)22-15(23)11-2-1-8-18-10-11/h1-10H,(H2,17,24,25)(H2,19,20,21,22,23)",AKFZINZSGJYCMM-UHFFFAOYSA-N,N[S](=O)(=O)C1=CC=C(NC2=NC(=NC=C2)NC(=O)C3=CC=CN=C3)C=C1,-1.27,0.0,1,G1
C-2503,"amidotrizoic  acid;  diatrizoic acid;  3,5-diacetamido-2,4,6-triiodobenzoic acid","InChI=1S/C11H9I3N2O4/c1-3(17)15-9-6(12)5(11(19)20)7(13)10(8(9)14)16-4(2)18/h1-2H3,(H,15,17)(H,16,18)(H,19,20)",YVPYQUNUQOZFHG-UHFFFAOYSA-N,CC(=O)NC1=C(I)C(=C(I)C(=C1I)C(O)=O)NC(C)=O,-2.01,0.0,1,G1
C-2504,norethindrone  4-phenoxybenzoate,"InChI=1S/C33H34O4/c1-3-33(37-31(35)22-9-13-26(14-10-22)36-25-7-5-4-6-8-25)20-18-30-29-15-11-23-21-24(34)12-16-27(23)28(29)17-19-32(30,33)2/h1,4-10,13-14,21,27-30H,11-12,15-20H2,2H3",NOLFOVJQJONDCP-UHFFFAOYSA-N,CC12CCC3C(CCC4=CC(=O)CCC34)C1CCC2(OC(=O)C5=CC=C(OC6=CC=CC=C6)C=C5)C#C,-6.84,0.0,1,G1
C-2505,"2-sulfamoyl-4-methyl-5-(4-anisylsulfonylimido)-1,3,4-thiadiazoline; 5-(4-methoxybenzenesulfonylimido)-4-methyl-delta2-1,3,4-thiadiazoline-2-sulfonamide","InChI=1S/C10H12N4O5S3/c1-14-9(20-10(12-14)21(11,15)16)13-22(17,18)8-5-3-7(19-2)4-6-8/h3-6H,1-2H3,(H2,11,15,16)",GXFOJGQBUWNOTA-UHFFFAOYSA-N,COC1=CC=C(C=C1)[S](=O)(=O)N=C2SC(=NN2C)[S](N)(=O)=O,-2.76,0.0,1,G1
C-2506,"2-sulfamoyl-5-(4-nitrobenzenesulfonamido)-1,3,4-thiadiazole","InChI=1S/C8H7N5O6S3/c9-21(16,17)8-11-10-7(20-8)12-22(18,19)6-3-1-5(2-4-6)13(14)15/h1-4H,(H,10,12)(H2,9,16,17)",UZKSIVGPWQRGOU-UHFFFAOYSA-N,N[S](=O)(=O)C1=NN=C(N[S](=O)(=O)C2=CC=C(C=C2)[N+]([O-])=O)S1,-1.33,0.0,1,G1
C-2507,"2,3-dichloro-4,6-disulfamoyl-1-glycylglycylamidobenzene","InChI=1S/C10H13Cl2N5O6S2/c11-8-4(24(14,20)21)1-5(25(15,22)23)10(9(8)12)17-7(19)3-16-6(18)2-13/h1H,2-3,13H2,(H,16,18)(H,17,19)(H2,14,20,21)(H2,15,22,23)",NFGGAIZJSZLPOX-UHFFFAOYSA-N,NCC(=O)NCC(=O)NC1=C(Cl)C(=C(C=C1[S](N)(=O)=O)[S](N)(=O)=O)Cl,-1.23,0.0,1,G1
C-2508,minocycline,"InChI=1S/C23H27N3O7/c1-25(2)12-5-6-13(27)15-10(12)7-9-8-11-17(26(3)4)19(29)16(22(24)32)21(31)23(11,33)20(30)14(9)18(15)28/h5-6,9,11,17,27,29-30,33H,7-8H2,1-4H3,(H2,24,32)",DYKFCLLONBREIL-UHFFFAOYSA-N,CN(C)C1C2CC3CC4=C(C=CC(=C4C(=O)C3=C(O)C2(O)C(=O)C(=C1O)C(N)=O)O)N(C)C,-0.94,0.0,1,G1
C-2509,"2-sulfamoyl-5-(3-nitrobenzenesulfonamido)-1,3,4-thiadiazole","InChI=1S/C8H7N5O6S3/c9-21(16,17)8-11-10-7(20-8)12-22(18,19)6-3-1-2-5(4-6)13(14)15/h1-4H,(H,10,12)(H2,9,16,17)",MPMQAYYQEKNVDO-UHFFFAOYSA-N,N[S](=O)(=O)C1=NN=C(N[S](=O)(=O)C2=CC(=CC=C2)[N+]([O-])=O)S1,-1.46,0.0,1,G1
C-2510,2-isopropylphenyl  2'-nitro-4'-[(4''-acetylpiperazin-1''-yl)acryloyl]phenyl  sulfide,"InChI=1S/C24H27N3O4S/c1-17(2)20-6-4-5-7-22(20)32-23-10-8-19(16-21(23)27(30)31)9-11-24(29)26-14-12-25(13-15-26)18(3)28/h4-11,16-17H,12-15H2,1-3H3/b11-9+",HTGGAYLWTDOFDK-PKNBQFBNSA-N,CC(C)C1=C(SC2=C(C=C(\C=C\C(=O)N3CCN(CC3)C(C)=O)C=C2)[N+]([O-])=O)C=CC=C1,-2.7,0.0,1,G1
C-2512,"5-(2-carboxybenzenesulfonamido)-1,3,4-thiadiazole-2-sulfonamide","InChI=1S/C9H8N4O6S3/c10-21(16,17)9-12-11-8(20-9)13-22(18,19)6-4-2-1-3-5(6)7(14)15/h1-4H,(H,11,13)(H,14,15)(H2,10,16,17)",ZRVCCBYKHVNUIP-UHFFFAOYSA-N,N[S](=O)(=O)C1=NN=C(N[S](=O)(=O)C2=C(C=CC=C2)C(O)=O)S1,-2.32,0.0,1,G1
C-2513,"5-(4-acetylaminobenzenesulfonamido)-1,3,4-thiadiazole-2-sulfonamide","InChI=1S/C10H11N5O5S3/c1-6(16)12-7-2-4-8(5-3-7)23(19,20)15-9-13-14-10(21-9)22(11,17)18/h2-5H,1H3,(H,12,16)(H,13,15)(H2,11,17,18)",NQSAAPCTPUNSPD-UHFFFAOYSA-N,CC(=O)NC1=CC=C(C=C1)[S](=O)(=O)NC2=NN=C(S2)[S](N)(=O)=O,-1.62,0.0,1,G1
C-2514,"2-sulfamoyl-5-(2-nitrobenzenesulfonamido)-1,3,4-thiadiazole","InChI=1S/C8H7N5O6S3/c9-21(16,17)8-11-10-7(20-8)12-22(18,19)6-4-2-1-3-5(6)13(14)15/h1-4H,(H,10,12)(H2,9,16,17)",CTLJHLYIILERNX-UHFFFAOYSA-N,N[S](=O)(=O)C1=NN=C(N[S](=O)(=O)C2=C(C=CC=C2)[N+]([O-])=O)S1,-1.82,0.0,1,G1
C-2515,2-chloro-4-[(4'-acetylpiperazin-1'-yl)carbonyl)ethenyl]phenyl  indol-5''-yl  sulfide,"InChI=1S/C23H22ClN3O2S/c1-16(28)26-10-12-27(13-11-26)23(29)7-3-17-2-6-22(20(24)14-17)30-19-4-5-21-18(15-19)8-9-25-21/h2-9,14-15,25H,10-13H2,1H3/b7-3+",SWIQOJQBTDWCRB-XVNBXDOJSA-N,CC(=O)N1CCN(CC1)C(=O)/C=C/C2=CC(=C(SC3=CC4=C([NH]C=C4)C=C3)C=C2)Cl,-2.74,0.0,1,G1
C-2516,"2-sulfamoyl-5-(2,4,6-trimethylbenzenesulfonylimido)-4-methyl-1,3,4-thiadiazoline","InChI=1S/C12H16N4O4S3/c1-7-5-8(2)10(9(3)6-7)23(19,20)15-11-16(4)14-12(21-11)22(13,17)18/h5-6H,1-4H3,(H2,13,17,18)",QSVMFFQOVYIPQM-UHFFFAOYSA-N,CN1N=C(SC1=N[S](=O)(=O)C2=C(C)C=C(C)C=C2C)[S](N)(=O)=O,-3.0,0.0,1,G1
C-2517,nicosulfuron,"InChI=1S/C15H18N6O6S/c1-21(2)13(22)9-6-5-7-16-12(9)28(24,25)20-15(23)19-14-17-10(26-3)8-11(18-14)27-4/h5-8H,1-4H3,(H2,17,18,19,20,23)",RTCOGUMHFFWOJV-UHFFFAOYSA-N,COC1=NC(=NC(=C1)OC)NC(=O)N[S](=O)(=O)C2=NC=CC=C2C(=O)N(C)C,-3.97,0.0,1,G1
C-2519,"indeno[1,2,3-cd]pyrene",InChI=1S/C22H12/c1-2-7-17-16(6-1)18-11-10-14-9-8-13-4-3-5-15-12-19(17)22(18)21(14)20(13)15/h1-12H,SXQBHARYMNFBPS-UHFFFAOYSA-N,C1=CC2=C(C=C1)C3=CC4=CC=CC5=C4C6=C3C2=CC=C6C=C5,-9.16,0.0,1,G1
C-2520,"2-sulfamoyl-5-(4-iodobenzenesulfonamido)-1,3,4-thiadiazole","InChI=1S/C8H7IN4O4S3/c9-5-1-3-6(4-2-5)20(16,17)13-7-11-12-8(18-7)19(10,14)15/h1-4H,(H,11,13)(H2,10,14,15)",NIRNPVHJRLYNLW-UHFFFAOYSA-N,N[S](=O)(=O)C1=NN=C(N[S](=O)(=O)C2=CC=C(I)C=C2)S1,-2.2,0.0,1,G1
C-2521,diltiazem,"InChI=1S/C22H26N2O4S/c1-15(25)28-20-21(16-9-11-17(27-4)12-10-16)29-19-8-6-5-7-18(19)24(22(20)26)14-13-23(2)3/h5-12,20-21H,13-14H2,1-4H3",HSUGRBWQSSZJOP-UHFFFAOYSA-N,COC1=CC=C(C=C1)C2SC3=CC=CC=C3N(CCN(C)C)C(=O)C2OC(C)=O,-2.95,0.0,1,G1
C-2522,"5-(4-bromobenzenesulfonylimido)-4-methyl-2-sulfonamido-delta2-1,3,4-thiadiazoline","InChI=1S/C9H9BrN4O4S3/c1-14-8(19-9(12-14)20(11,15)16)13-21(17,18)7-4-2-6(10)3-5-7/h2-5H,1H3,(H2,11,15,16)",OOQVFGGUMHVRKM-UHFFFAOYSA-N,CN1N=C(SC1=N[S](=O)(=O)C2=CC=C(Br)C=C2)[S](N)(=O)=O,-2.51,0.0,1,G1
C-2523,"dpx-m6316;  methyl  3-(4',6'-dimethoxy-1',3',5'-triazin-2'-yl)ureidosulfonylthiophene-2-carboxylate","InChI=1S/C12H13N5O7S2/c1-22-8(18)7-6(4-5-25-7)26(20,21)17-10(19)13-9-14-11(23-2)16-12(15-9)24-3/h4-5H,1-3H3,(H2,13,14,15,16,17,19)",KMTDLXVYRNAWSN-UHFFFAOYSA-N,COC(=O)C1=C(C=CS1)[S](=O)(=O)NC(=O)NC2=NC(=NC(=N2)OC)OC,-3.19,0.0,1,G1
C-2525,flavopiridol,"InChI=1S/C21H20ClNO5/c1-23-7-6-12(17(27)10-23)19-14(24)8-15(25)20-16(26)9-18(28-21(19)20)11-4-2-3-5-13(11)22/h2-5,8-9,12,17,24-25,27H,6-7,10H2,1H3",BIIVYFLTOXDAOV-UHFFFAOYSA-N,CN1CCC(C(O)C1)C2=C(O)C=C(O)C3=C2OC(=CC3=O)C4=C(Cl)C=CC=C4,-4.26,0.0,1,G1
C-2526,flutrimazole,"InChI=1S/C22H16F2N2/c23-19-12-10-18(11-13-19)22(26-15-14-25-16-26,17-6-2-1-3-7-17)20-8-4-5-9-21(20)24/h1-16H",QHMWCHQXCUNUAK-UHFFFAOYSA-N,FC1=CC=C(C=C1)C([N]2C=CN=C2)(C3=CC=CC=C3)C4=C(F)C=CC=C4,-8.4,0.0,1,G1
C-2527,tenoxicam,"InChI=1S/C13H11N3O4S2/c1-16-10(13(18)15-9-4-2-3-6-14-9)11(17)12-8(5-7-21-12)22(16,19)20/h2-7,17H,1H3,(H,14,15,18)",LZNWYQJJBLGYLT-UHFFFAOYSA-N,CN1C(=C(O)C2=C(C=CS2)[S]1(=O)=O)C(=O)NC3=NC=CC=C3,-3.88,0.0,1,G1
C-2528,"n1-(2-sulfamoyl-1,3,4-thiadiazol-5-yl)-n4-(glycyl)sulfanilamide","InChI=1S/C10H12N6O5S3/c11-5-8(17)13-6-1-3-7(4-2-6)24(20,21)16-9-14-15-10(22-9)23(12,18)19/h1-4H,5,11H2,(H,13,17)(H,14,16)(H2,12,18,19)",MIWUDGNQEWPLJX-UHFFFAOYSA-N,NCC(=O)NC1=CC=C(C=C1)[S](=O)(=O)NC2=NN=C(S2)[S](N)(=O)=O,-1.19,0.0,1,G1
C-2529,"4-methyl-5-(4-nitrobenzenesulfonylimido)-delta2-1,3,4-thiadiazoline-2-sulfonamide","InChI=1S/C9H9N5O6S3/c1-13-8(21-9(11-13)22(10,17)18)12-23(19,20)7-4-2-6(3-5-7)14(15)16/h2-5H,1H3,(H2,10,17,18)",NJBKUDDWNAXHHT-UHFFFAOYSA-N,CN1N=C(SC1=N[S](=O)(=O)C2=CC=C(C=C2)[N+]([O-])=O)[S](N)(=O)=O,-2.7,0.0,1,G1
C-2530,"4-methyl-5-(3-nitrobenzenesulfonylimido)-delta2-1,3,4-thiadiazoline-2-sulfonamide","InChI=1S/C9H9N5O6S3/c1-13-8(21-9(11-13)22(10,17)18)12-23(19,20)7-4-2-3-6(5-7)14(15)16/h2-5H,1H3,(H2,10,17,18)",BODJFESIQMWAAQ-UHFFFAOYSA-N,CN1N=C(SC1=N[S](=O)(=O)C2=CC=CC(=C2)[N+]([O-])=O)[S](N)(=O)=O,-2.67,0.0,1,G1
C-2531,difloxacin,"InChI=1S/C21H19F2N3O3/c1-24-6-8-25(9-7-24)19-11-18-15(10-17(19)23)20(27)16(21(28)29)12-26(18)14-4-2-13(22)3-5-14/h2-5,10-12H,6-9H2,1H3,(H,28,29)",NOCJXYPHIIZEHN-UHFFFAOYSA-N,CN1CCN(CC1)C2=CC3=C(C=C2F)C(=O)C(=CN3C4=CC=C(F)C=C4)C(O)=O,-3.82,0.10999999999999988,2,G3
C-2532,brinzolamide,"InChI=1S/C12H21N3O5S3/c1-3-14-10-8-15(5-4-6-20-2)23(18,19)12-9(10)7-11(21-12)22(13,16)17/h7,10,14H,3-6,8H2,1-2H3,(H2,13,16,17)",HCRKCZRJWPKOAR-UHFFFAOYSA-N,CCNC1CN(CCCOC)[S](=O)(=O)C2=C1C=C(S2)[S](N)(=O)=O,-2.95,0.0,1,G1
C-2533,thifluzamide,"InChI=1S/C13H6Br2F6N2O2S/c1-4-22-10(12(16,17)18)9(26-4)11(24)23-8-6(14)2-5(3-7(8)15)25-13(19,20)21/h2-3H,1H3,(H,23,24)",WOSNCVAPUOFXEH-UHFFFAOYSA-N,CC1=NC(=C(S1)C(=O)NC2=C(Br)C=C(OC(F)(F)F)C=C2Br)C(F)(F)F,-5.52,0.0,1,G1
C-2534,"2-sulfamoyl-4-methyl-5-(4-acetamidobenzenesulfonylimido)-1,3,4-thiadiazoline; 5-(4-acetylaminobenzenesulfonylimido)-4-methyl-delta2-1,3,4-thiadiazoline-2-sulfonamide","InChI=1S/C11H13N5O5S3/c1-7(17)13-8-3-5-9(6-4-8)24(20,21)15-10-16(2)14-11(22-10)23(12,18)19/h3-6H,1-2H3,(H,13,17)(H2,12,18,19)",COYOSRWVLQSZNN-UHFFFAOYSA-N,CN1N=C(SC1=N[S](=O)(=O)C2=CC=C(NC(C)=O)C=C2)[S](N)(=O)=O,-1.69,0.0,1,G1
C-2535,"5-(2-carboxybenzenesulfonylimido)-4-methyl-delta2-1,3,4-thiadiazoline-2-sulfonamide","InChI=1S/C10H10N4O6S3/c1-14-9(21-10(12-14)22(11,17)18)13-23(19,20)7-5-3-2-4-6(7)8(15)16/h2-5H,1H3,(H,15,16)(H2,11,17,18)",RAJJRSWYQMFJLA-UHFFFAOYSA-N,CN1N=C(SC1=N[S](=O)(=O)C2=C(C=CC=C2)C(O)=O)[S](N)(=O)=O,-2.51,0.0,1,G1
C-2536,sulfasalazine,"InChI=1S/C18H14N4O5S/c23-16-9-6-13(11-15(16)18(24)25)21-20-12-4-7-14(8-5-12)28(26,27)22-17-3-1-2-10-19-17/h1-11,23H,(H,19,22)(H,24,25)",NCEXYHBECQHGNR-UHFFFAOYSA-N,OC(=O)C1=C(O)C=CC(=C1)N=NC2=CC=C(C=C2)[S](=O)(=O)NC3=CC=CC=N3,-6.14,0.0,1,G1
C-2537,valsartan,"InChI=1S/C24H29N5O3/c1-4-5-10-21(30)29(22(16(2)3)24(31)32)15-17-11-13-18(14-12-17)19-8-6-7-9-20(19)23-25-27-28-26-23/h6-9,11-14,16,22H,4-5,10,15H2,1-3H3,(H,31,32)(H,25,26,27,28)",ACWBQPMHZXGDFX-UHFFFAOYSA-N,CCCCC(=O)N(CC1=CC=C(C=C1)C2=C(C=CC=C2)C3=NN=N[NH]3)C(C(C)C)C(O)=O,-4.2,0.0,1,G1
C-2538,"4-methyl-5-(2-nitrobenzenesulfonylimido)-delta2-1,3,4-thiadiazoline-2-sulfonamide","InChI=1S/C9H9N5O6S3/c1-13-8(21-9(11-13)22(10,17)18)12-23(19,20)7-5-3-2-4-6(7)14(15)16/h2-5H,1H3,(H2,10,17,18)",QHRGLLUMIFLPBM-UHFFFAOYSA-N,CN1N=C(SC1=N[S](=O)(=O)C2=CC=CC=C2[N+]([O-])=O)[S](N)(=O)=O,-2.79,0.0,1,G1
C-2539,"2-sulfamoyl-5-(4-chloro-3-nitrobenzenesulfonamido)-1,3,4-thiadiazole","InChI=1S/C8H6ClN5O6S3/c9-5-2-1-4(3-6(5)14(15)16)23(19,20)13-7-11-12-8(21-7)22(10,17)18/h1-3H,(H,11,13)(H2,10,17,18)",TVXIRRUAMKXIHC-UHFFFAOYSA-N,N[S](=O)(=O)C1=NN=C(N[S](=O)(=O)C2=CC(=C(Cl)C=C2)[N+]([O-])=O)S1,-1.99,0.0,1,G1
C-2540,"kn 1022; 4-(6',7'-dimethoxyquinazolin-4'-yl)-1-(4''-nitrophenylcarboxamido)piperazine","InChI=1S/C21H22N6O5/c1-31-18-11-16-17(12-19(18)32-2)22-13-23-20(16)25-7-9-26(10-8-25)21(28)24-14-3-5-15(6-4-14)27(29)30/h3-6,11-13H,7-10H2,1-2H3,(H,24,28)",ZIFCMJKHIXABHJ-UHFFFAOYSA-N,COC1=CC2=C(C=C1OC)C(=NC=N2)N3CCN(CC3)C(=O)NC4=CC=C(C=C4)[N+]([O-])=O,-6.95,0.0,1,G1
C-2541,fluorescein (red),"InChI=1S/C20H12O5/c21-11-5-7-15-17(9-11)25-18-10-12(22)6-8-16(18)19(15)13-3-1-2-4-14(13)20(23)24/h1-10,21H,(H,23,24)",YKGGGCXBWXHKIZ-UHFFFAOYSA-N,OC(=O)C1=CC=CC=C1C2=C3C=CC(=O)C=C3OC4=C2C=CC(=C4)O,-3.82,0.0,1,G1
C-2542,avitriptan;  bms-180048,"InChI=1S/C22H30N6O3S/c1-26(2)32(29,30)15-17-4-5-20-19(12-17)18(13-24-20)6-7-27-8-10-28(11-9-27)22-21(31-3)14-23-16-25-22/h4-5,12-14,16,24H,6-11,15H2,1-3H3",PJMZTMZELVDRNJ-UHFFFAOYSA-N,COC1=C(N=CN=C1)N2CCN(CC2)CCC3=C[NH]C4=C3C=C(C[S](=O)(=O)N(C)C)C=C4,-3.76,0.0,1,G1
C-2543,"5-(4-iodobenzenesulfonylimido)-4-methyl-2-sulfonamido-delta2-1,3,4-thiadiazoline","InChI=1S/C9H9IN4O4S3/c1-14-8(19-9(12-14)20(11,15)16)13-21(17,18)7-4-2-6(10)3-5-7/h2-5H,1H3,(H2,11,15,16)",JRLUKPGVTTYGLT-UHFFFAOYSA-N,CN1N=C(SC1=N[S](=O)(=O)C2=CC=C(I)C=C2)[S](N)(=O)=O,-2.77,0.0,1,G1
C-2544,cefazolin,"InChI=1S/C14H14N8O4S3/c1-6-17-18-14(29-6)28-4-7-3-27-12-9(11(24)22(12)10(7)13(25)26)16-8(23)2-21-5-15-19-20-21/h5,9,12H,2-4H2,1H3,(H,16,23)(H,25,26)",MLYYVTUWGNIJIB-UHFFFAOYSA-N,CC1=NN=C(SCC2=C(N3C(SC2)C(NC(=O)C[N]4C=NN=N4)C3=O)C(O)=O)S1,-2.62,0.0,1,G1
C-2545,phenyl-kni-727,"InChI=1S/C27H35N3O4S/c1-26(2,3)29-24(33)22-27(4,5)35-17-30(22)25(34)21(31)20(16-18-12-8-6-9-13-18)28-23(32)19-14-10-7-11-15-19/h6-15,20-22,31H,16-17H2,1-5H3,(H,28,32)(H,29,33)",URHJIBSBOJFXDI-UHFFFAOYSA-N,CC(C)(C)NC(=O)C1N(CSC1(C)C)C(=O)C(O)C(CC2=CC=CC=C2)NC(=O)C3=CC=CC=C3,-3.62,0.0,1,G1
C-2546,"acetazolamide  analog c 13; 5-pentafluorobenzenesulfonylamino-1,3,4-thiadiazole-2-sulfonamide","InChI=1S/C8H3F5N4O4S3/c9-1-2(10)4(12)6(5(13)3(1)11)24(20,21)17-7-15-16-8(22-7)23(14,18)19/h(H,15,17)(H2,14,18,19)",SNVIUSFXXHRDCP-UHFFFAOYSA-N,N[S](=O)(=O)C1=NN=C(N[S](=O)(=O)C2=C(F)C(=C(F)C(=C2F)F)F)S1,-1.21,0.0,1,G1
C-2547,cefamandole,"InChI=1S/C18H18N6O5S2/c1-23-18(20-21-22-23)31-8-10-7-30-16-11(15(27)24(16)12(10)17(28)29)19-14(26)13(25)9-5-3-2-4-6-9/h2-6,11,13,16,25H,7-8H2,1H3,(H,19,26)(H,28,29)",OLVCFLKTBJRLHI-UHFFFAOYSA-N,C[N]1N=NN=C1SCC2=C(N3C(SC2)C(NC(=O)C(O)C4=CC=CC=C4)C3=O)C(O)=O,-0.14,0.0,1,G1
C-2548,brequinar,"InChI=1S/C23H15F2NO2/c1-13-21(23(27)28)18-12-16(24)10-11-20(18)26-22(13)15-8-6-14(7-9-15)17-4-2-3-5-19(17)25/h2-12H,1H3,(H,27,28)",PHEZJEYUWHETKO-UHFFFAOYSA-N,CC1=C(C(O)=O)C2=CC(=CC=C2N=C1C3=CC=C(C=C3)C4=C(F)C=CC=C4)F,-6.39,0.0,1,G1
C-2549,flubenzimine,"InChI=1S/C17H10F6N4S/c18-16(19,20)25-13-14(26-17(21,22)23)28-15(24-11-7-3-1-4-8-11)27(13)12-9-5-2-6-10-12/h1-10H",IZFZCMFMJKDHJZ-UHFFFAOYSA-N,FC(F)(F)N=C1SC(=NC2=CC=CC=C2)N(C3=CC=CC=C3)C1=NC(F)(F)F,-5.42,0.0,1,G1
C-2550,benzyl-kni-727,"InChI=1S/C28H37N3O4S/c1-27(2,3)30-25(34)24-28(4,5)36-18-31(24)26(35)23(33)21(16-19-12-8-6-9-13-19)29-22(32)17-20-14-10-7-11-15-20/h6-15,21,23-24,33H,16-18H2,1-5H3,(H,29,32)(H,30,34)",IIUYNOCBVMYAHS-UHFFFAOYSA-N,CC(C)(C)NC(=O)C1N(CSC1(C)C)C(=O)C(O)C(CC2=CC=CC=C2)NC(=O)CC3=CC=CC=C3,-3.72,0.0,1,G1