ID,Name,InChI,InChIKey,SMILES,Solubility,SD,Occurrences,Group
C-1234,2-benzoyloxy-n(tert-butyl)acetamide;  n-tert-butyl-2-benzoyloxyacetamide,"InChI=1S/C13H17NO3/c1-13(2,3)14-11(15)9-17-12(16)10-7-5-4-6-8-10/h4-8H,9H2,1-3H3,(H,14,15)",NZNPHIKNHGRVLZ-UHFFFAOYSA-N,CC(C)(C)NC(=O)COC(=O)C1=CC=CC=C1,-2.87,0.0,1,G1
C-1236,"2-benzoyloxy-n,n(diethyl)acetamide;  n,n-diethyl-2-benzoyloxyacetamide","InChI=1S/C13H17NO3/c1-3-14(4-2)12(15)10-17-13(16)11-8-6-5-7-9-11/h5-9H,3-4,10H2,1-2H3",MTAAHMQCSJMGHI-UHFFFAOYSA-N,CCN(CC)C(=O)COC(=O)C1=CC=CC=C1,-2.07,0.0,1,G1
C-1237,5-fluorouracil-1-methyl  butyrate;  1-butanoyloxymethyl-5-fluorouracil,"InChI=1S/C9H11FN2O4/c1-2-3-7(13)16-5-12-4-6(10)8(14)11-9(12)15/h4H,2-3,5H2,1H3,(H,11,14,15)",HNKFVQSWWYMANO-UHFFFAOYSA-N,CCCC(=O)OCN1C=C(F)C(=O)NC1=O,-1.31,0.0,1,G1
C-1238,n-(benzoyloxyacetyl)pyrrolidine,"InChI=1S/C13H15NO3/c15-12(14-8-4-5-9-14)10-17-13(16)11-6-2-1-3-7-11/h1-3,6-7H,4-5,8-10H2",GILNGPKTMRSQDW-UHFFFAOYSA-N,O=C(COC(=O)C1=CC=CC=C1)N2CCCC2,-1.57,0.0,1,G1
C-1239,penbutolol,"InChI=1S/C18H29NO2/c1-18(2,3)19-12-15(20)13-21-17-11-7-6-10-16(17)14-8-4-5-9-14/h6-7,10-11,14-15,19-20H,4-5,8-9,12-13H2,1-3H3",KQXKVJAGOJTNJS-UHFFFAOYSA-N,CC(C)(C)NCC(O)COC1=C(C=CC=C1)C2CCCC2,-1.84,0.0,1,G1
C-1240,"methiocarb;  3,5-dimethyl-4-methylthiophenyl  (n-methyl)carbamate","InChI=1S/C11H15NO2S/c1-7-5-9(14-11(13)12-3)6-8(2)10(7)15-4/h5-6H,1-4H3,(H,12,13)",YFBPRJGDJKVWAH-UHFFFAOYSA-N,CNC(=O)OC1=CC(=C(SC)C(=C1)C)C,-3.92,0.21649999999999991,2,G3
C-1241,"(n,n-dimethyl)carbamoylmethyl  salicylate; 2-(2-hydroxybenzoyloxy)-n,n-dimethylacetamide","InChI=1S/C11H13NO4/c1-12(2)10(14)7-16-11(15)8-5-3-4-6-9(8)13/h3-6,13H,7H2,1-2H3",SWLDDKZEHUBBOY-UHFFFAOYSA-N,CN(C)C(=O)COC(=O)C1=C(O)C=CC=C1,-1.71,0.0,1,G1
C-1242,1-(n-butyl)carbamoyl-5-fluorouracil,"InChI=1S/C9H12FN3O3/c1-2-3-4-11-8(15)13-5-6(10)7(14)12-9(13)16/h5H,2-4H2,1H3,(H,11,15)(H,12,14,16)",PVSNDBKXSKXPHM-UHFFFAOYSA-N,CCCCNC(=O)N1C=C(F)C(=O)NC1=O,-2.45,0.0,1,G1
C-1244,mevastatin,"InChI=1S/C23H34O5/c1-4-14(2)23(26)28-20-7-5-6-16-9-8-15(3)19(22(16)20)11-10-18-12-17(24)13-21(25)27-18/h6,8-9,14-15,17-20,22,24H,4-5,7,10-13H2,1-3H3",AJLFOPYRIVGYMJ-UHFFFAOYSA-N,CCC(C)C(=O)OC1CCC=C2C=CC(C)C(CCC3CC(O)CC(=O)O3)C12,-5.42,0.0,1,G1
C-1245,butyl  5-fluorouracil-1-carboxylate;  1-butoxycarbonyl-5-fluorouracil,"InChI=1S/C9H11FN2O4/c1-2-3-4-16-9(15)12-5-6(10)7(13)11-8(12)14/h5H,2-4H2,1H3,(H,11,13,14)",ZVRNEWNIEVRTIK-UHFFFAOYSA-N,CCCCOC(=O)N1C=C(F)C(=O)NC1=O,-1.59,0.0,1,G1
C-1246,"dimethachlor;  2-chloro-n-(2,6-dimethylphenyl)-n-(2-methoxyethyl)acetamide","InChI=1S/C13H18ClNO2/c1-10-5-4-6-11(2)13(10)15(7-8-17-3)12(16)9-14/h4-6H,7-9H2,1-3H3",SCCDDNKJYDZXMM-UHFFFAOYSA-N,COCCN(C(=O)CCl)C1=C(C)C=CC=C1C,-2.09,0.021949999999999914,2,G3
C-1248,isobutyl  5-fluorouracil-1-carboxylate;  1-isobutoxycarbonyl-5-fluorouracil,"InChI=1S/C9H11FN2O4/c1-5(2)4-16-9(15)12-3-6(10)7(13)11-8(12)14/h3,5H,4H2,1-2H3,(H,11,13,14)",DXDPKLIQOAVOAM-UHFFFAOYSA-N,CC(C)COC(=O)N1C=C(F)C(=O)NC1=O,-1.89,0.0,1,G1
C-1249,"2-benzoyloxy-(n-ethyl,n-2-hydroxyethyl)acetamide;  n-ethyl-n-(2-hydroxyethyl)-2-(benzoyloxy)acetamide","InChI=1S/C13H17NO4/c1-2-14(8-9-15)12(16)10-18-13(17)11-6-4-3-5-7-11/h3-7,15H,2,8-10H2,1H3",IIZIPXWXNPFUOU-UHFFFAOYSA-N,CCN(CCO)C(=O)COC(=O)C1=CC=CC=C1,-1.37,0.0,1,G1
C-1250,1-(2-chloroethoxycarbonyl)-5-fluorouracil,"InChI=1S/C7H6ClFN2O4/c8-1-2-15-7(14)11-3-4(9)5(12)10-6(11)13/h3H,1-2H2,(H,10,12,13)",IBSNJPJRDXEITQ-UHFFFAOYSA-N,FC1=CN(C(=O)NC1=O)C(=O)OCCCl,-1.91,0.0,1,G1
C-1251,metobromuron;  3-(4-bromophenyl)-1-methoxy-1-methylurea,"InChI=1S/C9H11BrN2O2/c1-12(14-2)9(13)11-8-5-3-7(10)4-6-8/h3-6H,1-2H3,(H,11,13)",WLFDQEVORAMCIM-UHFFFAOYSA-N,CON(C)C(=O)NC1=CC=C(Br)C=C1,-2.9,0.0,1,G1
C-1252,n-(benzoyloxyacetyl)morpholine,"InChI=1S/C13H15NO4/c15-12(14-6-8-17-9-7-14)10-18-13(16)11-4-2-1-3-5-11/h1-5H,6-10H2",AVZVLGDSSQKRGL-UHFFFAOYSA-N,O=C(COC(=O)C1=CC=CC=C1)N2CCOCC2,-1.77,0.0,1,G1
C-1253,oxabetrinil,"InChI=1S/C12H12N2O3/c13-8-11(10-4-2-1-3-5-10)14-17-9-12-15-6-7-16-12/h1-5,12H,6-7,9H2/b14-11+",WFVUIONFJOAYPK-SDNWHVSQSA-N,N#CC(=N\OCC1OCCO1)/C2=CC=CC=C2,-4.07,0.0,1,G1
C-1254,levorphanol,"InChI=1S/C17H23NO/c1-18-9-8-17-7-3-2-4-14(17)16(18)10-12-5-6-13(19)11-15(12)17/h5-6,11,14,16,19H,2-4,7-10H2,1H3",JAQUASYNZVUNQP-UHFFFAOYSA-N,CN1CCC23CCCCC2C1CC4=C3C=C(O)C=C4,-2.72,0.0,1,G1
C-1255,formothion,"InChI=1S/C6H12NO4PS2/c1-7(5-8)6(9)4-14-12(13,10-2)11-3/h5H,4H2,1-3H3",AIKKULXCBHRFOS-UHFFFAOYSA-N,CO[P](=S)(OC)SCC(=O)N(C)C=O,-2.0,0.0,1,G1
C-1256,carbendazim; methyl n-(benzimidazol-2-yl)carbamate; 2-(methoxycarbonylamino)benzimidazole,"InChI=1S/C9H9N3O2/c1-14-9(13)12-8-10-6-4-2-3-5-7(6)11-8/h2-5H,1H3,(H2,10,11,12,13)",TWFZGCMQGLPBSX-UHFFFAOYSA-N,COC(=O)NC1=NC2=CC=CC=C2[NH]1,-4.52,0.0,1,G1
C-1257,pravastatin,"InChI=1S/C23H34O6/c1-4-13(2)23(27)29-20-11-16(24)9-15-6-5-14(3)19(22(15)20)8-7-18-10-17(25)12-21(26)28-18/h5-6,9,13-14,16-20,22,24-25H,4,7-8,10-12H2,1-3H3",OQARDMYXSOFTLN-UHFFFAOYSA-N,CCC(C)C(=O)OC1CC(O)C=C2C=CC(C)C(CCC3CC(O)CC(=O)O3)C12,-3.35,0.0,1,G1
C-1258,n1-(benzoyloxyacetyl)glycinamide,"InChI=1S/C11H12N2O4/c12-9(14)6-13-10(15)7-17-11(16)8-4-2-1-3-5-8/h1-5H,6-7H2,(H2,12,14)(H,13,15)",XYGUXAGVJDBSBP-UHFFFAOYSA-N,NC(=O)CNC(=O)COC(=O)C1=CC=CC=C1,-1.5,0.0,1,G1
C-1260,"dipropetryn;  2-ethylthio-4,6-bis(isopropylamino)-1,3,5-triazine","InChI=1S/C11H21N5S/c1-6-17-11-15-9(12-7(2)3)14-10(16-11)13-8(4)5/h7-8H,6H2,1-5H3,(H2,12,13,14,15,16)",NPWMZOGDXOFZIN-UHFFFAOYSA-N,CCSC1=NC(=NC(=N1)NC(C)C)NC(C)C,-4.2,0.0,1,G1
C-1261,chlorambucil,"InChI=1S/C14H19Cl2NO2/c15-8-10-17(11-9-16)13-6-4-12(5-7-13)2-1-3-14(18)19/h4-7H,1-3,8-11H2,(H,18,19)",JCKYGMPEJWAADB-UHFFFAOYSA-N,OC(=O)CCCC1=CC=C(C=C1)N(CCCl)CCCl,-3.4,0.0,1,G1
C-1262,"(n,n-diallylcarbamoyl)methyl benzoate;  2-benzoyloxy-n,n-diallylacetamide","InChI=1S/C15H17NO3/c1-3-10-16(11-4-2)14(17)12-19-15(18)13-8-6-5-7-9-13/h3-9H,1-2,10-12H2",KIBXYDHXHWRNTP-UHFFFAOYSA-N,C=CCN(CC=C)C(=O)COC(=O)C1=CC=CC=C1,-2.56,0.0,1,G1
C-1263,"2-benzoyloxy-n,n-diisopropylacetamide;  n,n-diisopropyl-2-benzoyloxyacetamide","InChI=1S/C15H21NO3/c1-11(2)16(12(3)4)14(17)10-19-15(18)13-8-6-5-7-9-13/h5-9,11-12H,10H2,1-4H3",ZWUAUTPCFIIFAS-UHFFFAOYSA-N,CC(C)N(C(C)C)C(=O)COC(=O)C1=CC=CC=C1,-3.34,0.0,1,G1
C-1264,"2-benzoyloxy-n,n-di(2-hydroxyethyl)acetamide;  n,n-di(2-hydroxyethyl)-2-(benzoyloxy)acetamide","InChI=1S/C13H17NO5/c15-8-6-14(7-9-16)12(17)10-19-13(18)11-4-2-1-3-5-11/h1-5,15-16H,6-10H2",UCIUVGVKELKZSD-UHFFFAOYSA-N,OCCN(CCO)C(=O)COC(=O)C1=CC=CC=C1,0.43,0.0,1,G1
C-1265,n-(benzoyloxyacetyl)-4-hydroxypiperidine,"InChI=1S/C14H17NO4/c16-12-6-8-15(9-7-12)13(17)10-19-14(18)11-4-2-1-3-5-11/h1-5,12,16H,6-10H2",YVWZWRFAFZRJGU-UHFFFAOYSA-N,OC1CCN(CC1)C(=O)COC(=O)C2=CC=CC=C2,-1.35,0.0,1,G1
C-1266,descyclovir;  dcv;  6-deoxyacyclovir,"InChI=1S/C8H11N5O2/c9-8-10-3-6-7(12-8)13(4-11-6)5-15-2-1-14/h3-4,14H,1-2,5H2,(H2,9,10,12)",OKQHSIGMOWQUIK-UHFFFAOYSA-N,NC1=NC2=C(C=N1)N=C[N]2COCCO,-1.08,0.0,1,G1
C-1267,hexyl  5-fluorouracil-1-carboxylate;  1-hexoxycarbonyl-5-fluorouracil,"InChI=1S/C11H15FN2O4/c1-2-3-4-5-6-18-11(17)14-7-8(12)9(15)13-10(14)16/h7H,2-6H2,1H3,(H,13,15,16)",LAUBAKJLUNBTEP-UHFFFAOYSA-N,CCCCCCOC(=O)N1C=C(F)C(=O)NC1=O,-2.24,0.0,1,G1
C-1269,"(n,n-diethyl)carbamoylmethyl  salicylate;  n,n-diethyl-2-(salicyloyloxy)acetamide","InChI=1S/C13H17NO4/c1-3-14(4-2)12(16)9-18-13(17)10-7-5-6-8-11(10)15/h5-8,15H,3-4,9H2,1-2H3",SHQRMVJGVCBCEC-UHFFFAOYSA-N,CCN(CC)C(=O)COC(=O)C1=C(O)C=CC=C1,-2.56,0.0,1,G1
C-1270,"methoprotryne;  2-isopropylamino-4-(3-methoxypropylamino)-6-methylthio-1,3,5-triazine","InChI=1S/C11H21N5OS/c1-8(2)13-10-14-9(12-6-5-7-17-3)15-11(16-10)18-4/h8H,5-7H2,1-4H3,(H2,12,13,14,15,16)",DDUIUBPJPOKOMV-UHFFFAOYSA-N,COCCCNC1=NC(=NC(=N1)NC(C)C)SC,-2.93,0.0,1,G1
C-1272,dextromethorphan,"InChI=1S/C18H25NO/c1-19-10-9-18-8-4-3-5-15(18)17(19)11-13-6-7-14(20-2)12-16(13)18/h6-7,12,15,17H,3-5,8-11H2,1-2H3",MKXZASYAUGDDCJ-UHFFFAOYSA-N,COC1=CC2=C(CC3C4CCCCC24CCN3C)C=C1,-3.48,0.0,1,G1
C-1273,"n1,n1,n4-trimethylsulfanilamide","InChI=1S/C9H14N2O2S/c1-10-8-4-6-9(7-5-8)14(12,13)11(2)3/h4-7,10H,1-3H3",GZPBMGVKWGJDIF-UHFFFAOYSA-N,CNC1=CC=C(C=C1)[S](=O)(=O)N(C)C,-3.08,0.0,1,G1
C-1274,2-chlorodiphenyl  ether,InChI=1S/C12H9ClO/c13-11-8-4-5-9-12(11)14-10-6-2-1-3-7-10/h1-9H,IPBRZLMGGXHHMS-UHFFFAOYSA-N,ClC1=C(OC2=CC=CC=C2)C=CC=C1,-4.78,0.0,1,G1
C-1275,2-benzoyloxy-n-[(tris-hydroxymethyl)methyl]acetamide,"InChI=1S/C13H17NO6/c15-7-13(8-16,9-17)14-11(18)6-20-12(19)10-4-2-1-3-5-10/h1-5,15-17H,6-9H2,(H,14,18)",MSMHOCZOEWMZOH-UHFFFAOYSA-N,OCC(CO)(CO)NC(=O)COC(=O)C1=CC=CC=C1,-1.27,0.0,1,G1
C-1276,n-(2-benzoyloxyacetyl)-n-methylglycineamide,"InChI=1S/C12H14N2O4/c1-14(7-10(13)15)11(16)8-18-12(17)9-5-3-2-4-6-9/h2-6H,7-8H2,1H3,(H2,13,15)",DLVAUVPZQHGFJC-UHFFFAOYSA-N,CN(CC(N)=O)C(=O)COC(=O)C1=CC=CC=C1,-0.92,0.0,1,G1
C-1277,1-(n-octylcarbamoyl)-5-fluorouracil;  1-octylaminocarbonyl-5-fluorouracil,"InChI=1S/C13H20FN3O3/c1-2-3-4-5-6-7-8-15-12(19)17-9-10(14)11(18)16-13(17)20/h9H,2-8H2,1H3,(H,15,19)(H,16,18,20)",JNQHBKLRBXQHJO-UHFFFAOYSA-N,CCCCCCCCNC(=O)N1C=C(F)C(=O)NC1=O,-4.18,0.0,1,G1
C-1278,"n-[2-(benzoyloxy)acetyl]-2,6-dimethylpiperidine","InChI=1S/C16H21NO3/c1-12-7-6-8-13(2)17(12)15(18)11-20-16(19)14-9-4-3-5-10-14/h3-5,9-10,12-13H,6-8,11H2,1-2H3",WJUSVIUZCYELMK-UHFFFAOYSA-N,CC1CCCC(C)N1C(=O)COC(=O)C2=CC=CC=C2,-3.26,0.0,1,G1
C-1279,n-(2-benzoyloxyacetyl)alanineamide,"InChI=1S/C12H14N2O4/c1-8(11(13)16)14-10(15)7-18-12(17)9-5-3-2-4-6-9/h2-6,8H,7H2,1H3,(H2,13,16)(H,14,15)",GUNGCOIXSOZDCM-UHFFFAOYSA-N,CC(NC(=O)COC(=O)C1=CC=CC=C1)C(N)=O,-2.72,0.0,1,G1
C-1280,"2-benzoyloxy-n,n-bis(2-methoxyethyl)acetamide; n,n-bis(2-methoxyethyl)-2-benzoyloxyacetamide","InChI=1S/C15H21NO5/c1-19-10-8-16(9-11-20-2)14(17)12-21-15(18)13-6-4-3-5-7-13/h3-7H,8-12H2,1-2H3",LJCFRMUKLSCNKV-UHFFFAOYSA-N,COCCN(CCOC)C(=O)COC(=O)C1=CC=CC=C1,-1.57,0.0,1,G1
C-1281,carbamoylmethyl  acetylsalicylate;  2-(2-acetoxybenzoyloxy)acetamide,"InChI=1S/C11H11NO5/c1-7(13)17-9-5-3-2-4-8(9)11(15)16-6-10(12)14/h2-5H,6H2,1H3,(H2,12,14)",KVNWJGCJKBJLRM-UHFFFAOYSA-N,CC(=O)OC1=CC=CC=C1C(=O)OCC(N)=O,-1.79,0.0,1,G1
C-1282,furmecyclox;  furmetamide,"InChI=1S/C14H21NO3/c1-10-9-13(11(2)18-10)14(16)15(17-3)12-7-5-4-6-8-12/h9,12H,4-8H2,1-3H3",QTDRLOKFLJJHTG-UHFFFAOYSA-N,CON(C1CCCCC1)C(=O)C2=C(C)OC(=C2)C,-2.92,1.50155,2,G2
C-1283,chlorbromuron;  maloran;  3-(4-bromo-3-chlorophenyl)-1-methoxy-1-methylurea,"InChI=1S/C9H10BrClN2O2/c1-13(15-2)9(14)12-6-3-4-7(10)8(11)5-6/h3-5H,1-2H3,(H,12,14)",NLYNUTMZTCLNOO-UHFFFAOYSA-N,CON(C)C(=O)NC1=CC=C(Br)C(=C1)Cl,-3.92,0.0,1,G1
C-1284,2-biphenylcarboxylic  acid;  2-phenylbenzoic acid,"InChI=1S/C13H10O2/c14-13(15)12-9-5-4-8-11(12)10-6-2-1-3-7-10/h1-9H,(H,14,15)",ILYSAKHOYBPSPC-UHFFFAOYSA-N,OC(=O)C1=C(C=CC=C1)C2=CC=CC=C2,-2.73,0.0,1,G1
C-1285,"2,4,6-trinitrotoluene","InChI=1S/C7H5N3O6/c1-4-6(9(13)14)2-5(8(11)12)3-7(4)10(15)16/h2-3H,1H3",SPSSULHKWOKEEL-UHFFFAOYSA-N,CC1=C(C=C(C=C1[N+]([O-])=O)[N+]([O-])=O)[N+]([O-])=O,-3.24,0.010000000000000009,2,G3
C-1286,methyl  yellow;  4-dimethylaminoazobenzene,"InChI=1S/C14H15N3/c1-17(2)14-10-8-13(9-11-14)16-15-12-6-4-3-5-7-12/h3-11H,1-2H3",JCYPECIVGRXBMO-UHFFFAOYSA-N,CN(C)C1=CC=C(C=C1)N=NC2=CC=CC=C2,-3.05,1.4705000000000004,2,G2
C-1287,ethyl n-(benzoyloxyacetyl)-n-methylglycinate; n-(benzoyloxyacetyl)-n-methylglycine ethyl ester,"InChI=1S/C14H17NO5/c1-3-19-13(17)9-15(2)12(16)10-20-14(18)11-7-5-4-6-8-11/h4-8H,3,9-10H2,1-2H3",VPGYQOPHCDIWSQ-UHFFFAOYSA-N,CCOC(=O)CN(C)C(=O)COC(=O)C1=CC=CC=C1,-1.67,0.0,1,G1
C-1288,1-(acetoxymethyl)allopurinol,"InChI=1S/C8H8N4O3/c1-5(13)15-4-12-7-6(2-11-12)8(14)10-3-9-7/h2-3H,4H2,1H3,(H,9,10,14)",UIJGCCLNZYPVFJ-UHFFFAOYSA-N,CC(=O)OC[N]1N=CC2=C1N=CNC2=O,-2.56,0.0,1,G1
C-1289,pyridaben,"InChI=1S/C19H25ClN2OS/c1-18(2,3)14-9-7-13(8-10-14)12-24-15-11-21-22(19(4,5)6)17(23)16(15)20/h7-11H,12H2,1-6H3",DWFZBUWUXWZWKD-UHFFFAOYSA-N,CC(C)(C)N1N=CC(=C(Cl)C1=O)SCC2=CC=C(C=C2)C(C)(C)C,-7.48,0.0,1,G1
C-1290,2-carboxy-n(benzoyloxyacetyl)azetidine,"InChI=1S/C13H13NO5/c15-11(14-7-6-10(14)12(16)17)8-19-13(18)9-4-2-1-3-5-9/h1-5,10H,6-8H2,(H,16,17)",JLZFEIOGWCNGPG-UHFFFAOYSA-N,OC(=O)C1CCN1C(=O)COC(=O)C2=CC=CC=C2,-2.14,0.0,1,G1
C-1291,"metamitron;  4-amino-3-methyl-6-phenyl-1,2,4-triazin-5(4h)-one","InChI=1S/C10H10N4O/c1-7-12-13-9(10(15)14(7)11)8-5-3-2-4-6-8/h2-6H,11H2,1H3",VHCNQEUWZYOAEV-UHFFFAOYSA-N,CC1=NN=C(C2=CC=CC=C2)C(=O)N1N,-2.05,0.0,1,G1
C-1292,flurochloridone,"InChI=1S/C12H10Cl2F3NO/c13-5-7-6-18(11(19)10(7)14)9-3-1-2-8(4-9)12(15,16)17/h1-4,7,10H,5-6H2",OQZCSNDVOWYALR-UHFFFAOYSA-N,FC(F)(F)C1=CC=CC(=C1)N2CC(CCl)C(Cl)C2=O,-4.05,0.05049999999999999,2,G3
C-1294,cga 50439;  xymiazole;  cymiazole,"InChI=1S/C12H14N2S/c1-9-4-5-11(10(2)8-9)13-12-14(3)6-7-15-12/h4-8H,1-3H3",YUAUPYJCVKNAEC-UHFFFAOYSA-N,CN1C=CSC1=NC2=C(C)C=C(C)C=C2,-3.16,0.0,1,G1
C-1295,n-ethyl-2-[(2-acetoxy)benzoyloxy]acetamide,"InChI=1S/C13H15NO5/c1-3-14-12(16)8-18-13(17)10-6-4-5-7-11(10)19-9(2)15/h4-7H,3,8H2,1-2H3,(H,14,16)",QZTDIROWVCZJJV-UHFFFAOYSA-N,CCNC(=O)COC(=O)C1=CC=CC=C1OC(C)=O,-1.68,0.0,1,G1
C-1297,ethoxycarbonylmetyl  acetylsalicylate;  2-(2-acetoxybenzoyloxy)acetic acid ethyl ester,"InChI=1S/C13H14O6/c1-3-17-12(15)8-18-13(16)10-6-4-5-7-11(10)19-9(2)14/h4-7H,3,8H2,1-2H3",HFSBGVJICLMJRK-UHFFFAOYSA-N,CCOC(=O)COC(=O)C1=CC=CC=C1OC(C)=O,-2.58,0.0,1,G1
C-1298,"n,n-dimethyl-2-[(2-acetoxy)benzoyloxy]acetamide","InChI=1S/C13H15NO5/c1-9(15)19-11-7-5-4-6-10(11)13(17)18-8-12(16)14(2)3/h4-7H,8H2,1-3H3",FDTMXYKUFIZEMG-UHFFFAOYSA-N,CN(C)C(=O)COC(=O)C1=CC=CC=C1OC(C)=O,-1.55,0.0,1,G1
C-1299,"n4-formyl-n1,n1,n4-trimethylsulfanilamide; n-[(4-dimethylsulfamoyl)phenyl]-n-methylformamide","InChI=1S/C10H14N2O3S/c1-11(2)16(14,15)10-6-4-9(5-7-10)12(3)8-13/h4-8H,1-3H3",XSDPZPWLUUGYHH-UHFFFAOYSA-N,CN(C)[S](=O)(=O)C1=CC=C(C=C1)N(C)C=O,-2.37,0.0,1,G1
C-1300,cyclophosphamide,"InChI=1S/C7H15Cl2N2O2P/c8-2-5-11(6-3-9)14(12)10-4-1-7-13-14/h1-7H2,(H,10,12)",CMSMOCZEIVJLDB-UHFFFAOYSA-N,ClCCN(CCCl)[P]1(=O)NCCCO1,-0.82,0.0,1,G1
C-1301,o-acetyl-6-deoxyacyclovir,"InChI=1S/C10H13N5O3/c1-7(16)18-3-2-17-6-15-5-13-8-4-12-10(11)14-9(8)15/h4-5H,2-3,6H2,1H3,(H2,11,12,14)",ZGBDUUGWUHBQNX-UHFFFAOYSA-N,CC(=O)OCCOC[N]1C=NC2=C1N=C(N)N=C2,-0.97,0.0,1,G1
C-1302,methylsulfinylmethyl  acetylsalicylate;  2-acetoxybenzoic acid (methylsulfinyl)methyl ester,"InChI=1S/C11H12O5S/c1-8(12)16-10-6-4-3-5-9(10)11(13)15-7-17(2)14/h3-6H,7H2,1-2H3",ZUYDNEVBJGMSGH-UHFFFAOYSA-N,CC(=O)OC1=CC=CC=C1C(=O)OC[S](C)=O,-1.78,0.0,1,G1
C-1303,n-(benzoyloxyacetyl)prolinamide,"InChI=1S/C14H16N2O4/c15-13(18)11-7-4-8-16(11)12(17)9-20-14(19)10-5-2-1-3-6-10/h1-3,5-6,11H,4,7-9H2,(H2,15,18)",QUIKDFWIKDMXIO-UHFFFAOYSA-N,NC(=O)C1CCCN1C(=O)COC(=O)C2=CC=CC=C2,-2.27,0.0,1,G1
C-1304,2-nitro-4-phenylphenol,"InChI=1S/C12H9NO3/c14-12-7-6-10(8-11(12)13(15)16)9-4-2-1-3-5-9/h1-8,14H",JDDNJJBXFOLPKX-UHFFFAOYSA-N,OC1=CC=C(C=C1[N+]([O-])=O)C2=CC=CC=C2,-4.41,0.0,1,G1
C-1305,"morphine;  7,8-didehydro-4,5-epoxy-17-methylmorphinan-3,6-diol","InChI=1S/C17H19NO3/c1-18-7-6-17-10-3-5-13(20)16(17)21-15-12(19)4-2-9(14(15)17)8-11(10)18/h2-5,10-11,13,16,19-20H,6-8H2,1H3",BQJCRHHNABKAKU-UHFFFAOYSA-N,CN1CCC23C4OC5=C(O)C=CC(=C25)CC1C3C=CC4O,-3.15,0.06499999999999995,2,G3
C-1308,n-(benzoyloxyacetyl)proline,"InChI=1S/C14H15NO5/c16-12(15-8-4-7-11(15)13(17)18)9-20-14(19)10-5-2-1-3-6-10/h1-3,5-6,11H,4,7-9H2,(H,17,18)",GZXGHZDSFNQRKK-UHFFFAOYSA-N,OC(=O)C1CCCN1C(=O)COC(=O)C2=CC=CC=C2,-1.59,0.0,1,G1
C-1309,allopurin-2-yl-methyl  butyrate;  2-(butanoyloxymethyl)allopurinol,"InChI=1S/C10H12N4O3/c1-2-3-8(15)17-6-14-4-7-9(13-14)11-5-12-10(7)16/h4-5H,2-3,6H2,1H3,(H,11,12,13,16)",BKEJTAUUSZULEO-UHFFFAOYSA-N,CCCC(=O)OC[N]1C=C2C(=O)NC=NC2=N1,-2.2,0.0,1,G1
C-1310,methabenzthiazuron,"InChI=1S/C10H11N3OS/c1-11-9(14)13(2)10-12-7-5-3-4-6-8(7)15-10/h3-6H,1-2H3,(H,11,14)",RRVIAQKBTUQODI-UHFFFAOYSA-N,CNC(=O)N(C)C1=NC2=C(S1)C=CC=C2,-3.57,0.0,1,G1
C-1311,allopurin-1-yl-methyl  butyrate;   1-(butanoyloxymethyl)allopurinol,"InChI=1S/C10H12N4O3/c1-2-3-8(15)17-6-14-9-7(4-13-14)10(16)12-5-11-9/h4-5H,2-3,6H2,1H3,(H,11,12,16)",IIVOEPVKDWTLJB-UHFFFAOYSA-N,CCCC(=O)OC[N]1N=CC2=C1N=CNC2=O,-2.83,0.0,1,G1
C-1312,forchlorfenuron;  1-(2-chloro-4-pyridinyl)-3-phenylurea,"InChI=1S/C12H10ClN3O/c13-11-8-10(6-7-14-11)16-12(17)15-9-4-2-1-3-5-9/h1-8H,(H2,14,15,16,17)",GPXLRLUVLMHHIK-UHFFFAOYSA-N,ClC1=NC=CC(=C1)NC(=O)NC2=CC=CC=C2,-3.8,0.0,1,G1
C-1313,proxyphylline;  7-(2-hydroxypropyl)theophylline,"InChI=1S/C10H14N4O3/c1-6(15)4-14-5-11-8-7(14)9(16)13(3)10(17)12(8)2/h5-6,15H,4H2,1-3H3",KYHQZNGJUGFTGR-UHFFFAOYSA-N,CC(O)C[N]1C=NC2=C1C(=O)N(C)C(=O)N2C,0.62,0.0,1,G1
C-1314,n-acetyl-6-deoxyacyclovir,"InChI=1S/C10H13N5O3/c1-7(17)13-10-11-4-8-9(14-10)15(5-12-8)6-18-3-2-16/h4-5,16H,2-3,6H2,1H3,(H,11,13,14,17)",LPOUIKBMWDULCN-UHFFFAOYSA-N,CC(=O)NC1=NC2=C(C=N1)N=C[N]2COCCO,-0.86,0.0,1,G1
C-1315,ofurace,"InChI=1S/C14H16ClNO3/c1-9-4-3-5-10(2)13(9)16(12(17)8-15)11-6-7-19-14(11)18/h3-5,11H,6-8H2,1-2H3",OWDLFBLNMPCXSD-UHFFFAOYSA-N,CC1=C(N(C2CCOC2=O)C(=O)CCl)C(=CC=C1)C,-3.29,0.0,1,G1
C-1316,"n1,n1,n4-trimethyl-n4-acetylsulfanilamide","InChI=1S/C11H16N2O3S/c1-9(14)13(4)10-5-7-11(8-6-10)17(15,16)12(2)3/h5-8H,1-4H3",YDHAYUGJQGJRIJ-UHFFFAOYSA-N,CN(C)[S](=O)(=O)C1=CC=C(C=C1)N(C)C(C)=O,-2.3,0.0,1,G1
C-1317,"2,2',3-trichlorobiphenyl",InChI=1S/C12H7Cl3/c13-10-6-2-1-4-8(10)9-5-3-7-11(14)12(9)15/h1-7H,XVIZMMSINIOIQP-UHFFFAOYSA-N,ClC1=CC=CC(=C1Cl)C2=CC=CC=C2Cl,-5.94,0.0,1,G1
C-1319,"(n,n-diethyl)carbamoylmethyl  acetylsalicylate;  n,n-diethyl-2-(2-acetoxybenzoyloxy)acetamide","InChI=1S/C15H19NO5/c1-4-16(5-2)14(18)10-20-15(19)12-8-6-7-9-13(12)21-11(3)17/h6-9H,4-5,10H2,1-3H3",HEFOCUJBDCFYAR-UHFFFAOYSA-N,CCN(CC)C(=O)COC(=O)C1=CC=CC=C1OC(C)=O,-2.11,0.0,1,G1
C-1320,2-(pivaloyloxymethyl)allopurinol,"InChI=1S/C11H14N4O3/c1-11(2,3)10(17)18-6-15-4-7-8(14-15)12-5-13-9(7)16/h4-5H,6H2,1-3H3,(H,12,13,14,16)",WLATWLPHXIPYFO-UHFFFAOYSA-N,CC(C)(C)C(=O)OC[N]1C=C2C(=O)NC=NC2=N1,-2.17,0.0,1,G1
C-1322,transfluthrin,"InChI=1S/C15H12Cl2F4O2/c1-15(2)7(3-10(16)17)11(15)14(22)23-5-6-12(20)8(18)4-9(19)13(6)21/h3-4,7,11H,5H2,1-2H3",DDVNRFNDOPPVQJ-UHFFFAOYSA-N,CC1(C)C(C=C(Cl)Cl)C1C(=O)OCC2=C(F)C(=CC(=C2F)F)F,-6.81,0.0,1,G1
C-1323,1-(pivaloyloxymethyl)allopurinol,"InChI=1S/C11H14N4O3/c1-11(2,3)10(17)18-6-15-8-7(4-14-15)9(16)13-5-12-8/h4-5H,6H2,1-3H3,(H,12,13,16)",VNPZIVNSLRXKRF-UHFFFAOYSA-N,CC(C)(C)C(=O)OC[N]1N=CC2=C1N=CNC2=O,-2.68,0.0,1,G1
C-1325,enilconazole; imazalil,"InChI=1S/C14H14Cl2N2O/c1-2-7-19-14(9-18-6-5-17-10-18)12-4-3-11(15)8-13(12)16/h2-6,8,10,14H,1,7,9H2",PZBPKYOVPCNPJY-UHFFFAOYSA-N,ClC1=CC(=C(C=C1)C(C[N]2C=CN=C2)OCC=C)Cl,-3.22,0.0,1,G1
C-1326,dicyclohexyl  phthalate,"InChI=1S/C20H26O4/c21-19(23-15-9-3-1-4-10-15)17-13-7-8-14-18(17)20(22)24-16-11-5-2-6-12-16/h7-8,13-16H,1-6,9-12H2",VOWAEIGWURALJQ-UHFFFAOYSA-N,O=C(OC1CCCCC1)C2=CC=CC=C2C(=O)OC3CCCCC3,-4.92,0.0,1,G1
C-1328,"3,4,5-trichlorodiphenyl  ether",InChI=1S/C12H7Cl3O/c13-10-6-9(7-11(14)12(10)15)16-8-4-2-1-3-5-8/h1-7H,ZQCCHNBMSHOJAT-UHFFFAOYSA-N,ClC1=C(Cl)C(=CC(=C1)OC2=CC=CC=C2)Cl,-6.77,0.0,1,G1
C-1330,o-acetylacyclovir,"InChI=1S/C10H13N5O4/c1-6(16)19-3-2-18-5-15-4-12-7-8(15)13-10(11)14-9(7)17/h4H,2-3,5H2,1H3,(H3,11,13,14,17)",DMHAXLGAKQREIL-UHFFFAOYSA-N,CC(=O)OCCOC[N]1C=NC2=C1N=C(N)NC2=O,-2.7,0.0,1,G1
C-1331,methyldymron,"InChI=1S/C17H20N2O/c1-17(2,14-10-6-4-7-11-14)18-16(20)19(3)15-12-8-5-9-13-15/h4-13H,1-3H3,(H,18,20)",FMINYZXVCTYSNY-UHFFFAOYSA-N,CN(C(=O)NC(C)(C)C1=CC=CC=C1)C2=CC=CC=C2,-3.35,0.0,1,G1
C-1332,tebuconazole,"InChI=1S/C16H22ClN3O/c1-15(2,3)16(21,10-20-12-18-11-19-20)9-8-13-4-6-14(17)7-5-13/h4-7,11-12,21H,8-10H2,1-3H3",PXMNMQRDXWABCY-UHFFFAOYSA-N,CC(C)(C)C(O)(CCC1=CC=C(Cl)C=C1)C[N]2C=NC=N2,-3.93,0.0,1,G1
C-1333,"n1,n1,n4-trimethyl-n4-propanoylsulfanilamide","InChI=1S/C12H18N2O3S/c1-5-12(15)14(4)10-6-8-11(9-7-10)18(16,17)13(2)3/h6-9H,5H2,1-4H3",ZCPRMRBJNJMHRJ-UHFFFAOYSA-N,CCC(=O)N(C)C1=CC=C(C=C1)[S](=O)(=O)N(C)C,-2.48,0.0,1,G1
C-1334,"2,4,5-trichlorodiphenyl  ether",InChI=1S/C12H7Cl3O/c13-9-6-11(15)12(7-10(9)14)16-8-4-2-1-3-5-8/h1-7H,UWKZWXCTDPYXHU-UHFFFAOYSA-N,ClC1=CC(=C(OC2=CC=CC=C2)C=C1Cl)Cl,-6.58,0.0,1,G1
C-1335,naproxen ethyl ester,"InChI=1S/C16H18O3/c1-4-19-16(17)11(2)12-5-6-14-10-15(18-3)8-7-13(14)9-12/h5-11H,4H2,1-3H3",URNAYRDBUUZOIU-UHFFFAOYSA-N,CCOC(=O)C(C)C1=CC2=CC=C(OC)C=C2C=C1,-5.33,0.0,1,G1