ID,Name,InChI,InChIKey,SMILES,Solubility,SD,Occurrences,Group
B-476,1-phenyldecane,"InChI=1S/C16H26/c1-2-3-4-5-6-7-8-10-13-16-14-11-9-12-15-16/h9,11-12,14-15H,2-8,10,13H2,1H3",UZILCZKGXMQEQR-UHFFFAOYSA-N,CCCCCCCCCCc1ccccc1,-7.959,0.0,1,G1
B-477,2-ethyl-1-hexanol,"InChI=1S/C8H18O/c1-3-5-6-8(4-2)7-9/h8-9H,3-7H2,1-2H3",YIWUKEYIRIRTPP-UHFFFAOYSA-N,CCCCC(CC)CO,-2.1702,0.06598323019272907,3,G5
B-478,"2,5-tetrahydrofurandimethanol","InChI=1S/C6H12O3/c7-3-5-1-2-6(4-8)9-5/h5-8H,1-4H2",YCZZQSFWHFBKMU-UHFFFAOYSA-N,OCC1CCC(CO)O1,0.8789,0.0,1,G1
B-480,5-ethyl-2-methylpyridine,"InChI=1S/C8H11N/c1-3-8-5-4-7(2)9-6-8/h4-6H,3H2,1-2H3",NTSLROIKFLNUIJ-UHFFFAOYSA-N,CCc1ccc(C)nc1,-1.0042,0.0,1,G1
B-482,p-methoxybenzyl alcohol,"InChI=1S/C8H10O2/c1-10-8-4-2-7(6-9)3-5-8/h2-5,9H,6H2,1H3",MSHFRERJPWKJFX-UHFFFAOYSA-N,COc1ccc(CO)cc1,-1.8394,0.0,1,G1
B-484,1-hexyn-3-ol,"InChI=1S/C6H10O/c1-3-5-6(7)4-2/h2,6-7H,3,5H2,1H3",LTFTWJYRQNTCHI-UHFFFAOYSA-N,CCCC(O)C#C,-0.4121,0.0,1,G1
B-485,ethyl chloroacetate,"InChI=1S/C4H7ClO2/c1-2-7-4(6)3-5/h2-3H2,1H3",VEUUMBGHMNQHGO-UHFFFAOYSA-N,CCOC(=O)CCl,-0.8005,0.0,1,G1
B-490,n-methyldiethanolamine,"InChI=1S/C5H13NO2/c1-6(2-4-7)3-5-8/h7-8H,2-5H2,1H3",CRVGTESFCCXCTH-UHFFFAOYSA-N,CN(CCO)CCO,0.9239,0.0,1,G1
B-491,"butanoic acid, 1,2-ethanediyl ester","InChI=1S/C10H18O4/c1-3-5-9(11)13-7-8-14-10(12)6-4-2/h3-8H2,1-2H3",SFTRWCBAYKQWCS-UHFFFAOYSA-N,CCCC(=O)OCCOC(=O)CCC,-2.6069,0.0,1,G1
B-492,dibutyl maleate,"InChI=1S/C12H20O4/c1-3-5-9-15-11(13)7-8-12(14)16-10-6-4-2/h7-8H,3-6,9-10H2,1-2H3/b8-7-",JBSLOWBPDRZSMB-FPLPWBNLSA-N,CCCCOC(=O)\C=C/C(=O)OCCCC,-2.6595,0.0,1,G1
B-493,"hexanedioic acid, bis(2-methoxyethyl) ester","InChI=1S/C12H22O6/c1-15-7-9-17-11(13)5-3-4-6-12(14)18-10-8-16-2/h3-10H2,1-2H3",GVRNUDCCYWKHMV-UHFFFAOYSA-N,COCCOC(=O)CCCCC(=O)OCCOC,-1.2665,0.0,1,G1
B-494,geraniol,"InChI=1S/C10H18O/c1-9(2)5-4-6-10(3)7-8-11/h5,7,11H,4,6,8H2,1-3H3/b10-7+",GLZPCOQZEFWAFX-JXMROGBWSA-N,CC(C)=CCC\C(C)=C\CO,-3.1882,0.0,1,G1
B-495,"2,6-octadien-1-ol, 3,7-dimethyl-, (z)-","InChI=1S/C10H18O/c1-9(2)5-4-6-10(3)7-8-11/h5,7,11H,4,6,8H2,1-3H3/b10-7-",GLZPCOQZEFWAFX-YFHOEESVSA-N,CC(C)=CCC\C(C)=C/CO,-2.4631,0.0,1,G1
B-498,quinhydrone,"InChI=1S/C6H6O2.C6H4O2/c2*7-5-1-2-6(8)4-3-5/h1-4,7-8H;1-4H",BDJXVNRFAQSMAA-UHFFFAOYSA-N,Oc1ccc(O)cc1.O=C2C=CC(=O)C=C2,-1.7305,0.0,1,G1
B-499,3-heptanone,"InChI=1S/C7H14O/c1-3-5-6-7(8)4-2/h3-6H2,1-2H3",NGAZZOYFWWSOGK-UHFFFAOYSA-N,CCCCC(=O)CC,-1.4242,0.26109999999999994,2,G3
B-503,dimethyl succinate,"InChI=1S/C6H10O4/c1-9-5(7)3-4-6(8)10-2/h3-4H2,1-2H3",MUXOBHXGJLMRAB-UHFFFAOYSA-N,COC(=O)CCC(=O)OC,-0.7668,0.0,1,G1
B-504,3-octanone,"InChI=1S/C8H16O/c1-3-5-6-7-8(9)4-2/h3-7H2,1-2H3",RHLVCLIPMVJYKS-UHFFFAOYSA-N,CCCCCC(=O)CC,-1.693,0.0,1,G1
B-506,"decanedioic acid, dimethyl ester","InChI=1S/C12H22O4/c1-15-11(13)9-7-5-3-4-6-8-10-12(14)16-2/h3-10H2,1-2H3",ALOUNLDAKADEEB-UHFFFAOYSA-N,COC(=O)CCCCCCCCC(=O)OC,-3.2831,0.0,1,G1
B-508,"1-propyne, 3-bromo-","InChI=1S/C3H3Br/c1-2-3-4/h1H,3H2",YORCIIVHUBAYBQ-UHFFFAOYSA-N,BrCC#C,-0.9022,0.0,1,G1
B-510,1-propanethiol,"InChI=1S/C3H8S/c1-2-3-4/h4H,2-3H2,1H3",SUVIGLJNEAMWEG-UHFFFAOYSA-N,CCCS,-1.6021,0.0,1,G1
B-517,"1,2-diaminoethane",InChI=1S/C2H8N2/c3-1-2-4/h1-4H2,PIICEJLVQHRZGT-UHFFFAOYSA-N,NCCN,1.2211,0.0,1,G1
B-521,glyoxal,InChI=1S/C2H2O2/c3-1-2-4/h1-2H,LEQAOMBKQFMDFZ-UHFFFAOYSA-N,O=CC=O,1.2363,0.0,1,G1
B-522,methylvinylether,"InChI=1S/C3H6O/c1-3-4-2/h3H,1H2,2H3",XJRBAMWJDBPFIM-UHFFFAOYSA-N,COC=C,-0.5879,0.0,1,G1
B-525,isethionic acid,"InChI=1S/C2H6O4S/c3-1-2-7(4,5)6/h3H,1-2H2,(H,4,5,6)",SUMDYPCJJOFFON-UHFFFAOYSA-N,OCC[S](O)(=O)=O,0.8992,0.0,1,G1
B-526,"2-methyl-2,4-pentanediol","InChI=1S/C6H14O2/c1-5(7)4-6(2,3)8/h5,7-8H,4H2,1-3H3",SVTBMSDMJJWYQN-UHFFFAOYSA-N,CC(O)CC(C)(C)O,0.9275,0.0,1,G1
B-527,sarin,"InChI=1S/C4H10FO2P/c1-4(2)7-8(3,5)6/h4H,1-3H3",DYAHQFWOVKZOOW-UHFFFAOYSA-N,CC(C)O[P](C)(F)=O,0.8536,0.0,1,G1
B-528,hexamethyldisiloxane,"InChI=1S/C6H18OSi2/c1-8(2,3)7-9(4,5)6/h1-6H3",UQEAIHBTYFGYIE-UHFFFAOYSA-N,C[Si](C)(C)O[Si](C)(C)C,-5.242000000000001,0.0,1,G1
B-529,tetraethyl pyrophosphate,"InChI=1S/C8H20O7P2/c1-5-11-16(9,12-6-2)15-17(10,13-7-3)14-8-4/h5-8H2,1-4H3",IDCBOTIENDVCBQ-UHFFFAOYSA-N,CCO[P](=O)(OCC)O[P](=O)(OCC)OCC,0.5373,0.0,1,G1
B-530,octamethyltrisiloxane,"InChI=1S/C8H24O2Si3/c1-11(2,3)9-13(7,8)10-12(4,5)6/h1-8H3",CXQXSVUQTKDNFP-UHFFFAOYSA-N,C[Si](C)(C)O[Si](C)(C)O[Si](C)(C)C,-6.8424,0.0,1,G1
B-531,di-n-butyl phosphate,"InChI=1S/C8H19O4P/c1-3-5-7-11-13(9,10)12-8-6-4-2/h3-8H2,1-2H3,(H,9,10)",JYFHYPJRHGVZDY-UHFFFAOYSA-N,CCCCO[P](O)(=O)OCCCC,-1.0874,0.0,1,G1
B-533,4-methoxy-4-methyl-2-pentanone,"InChI=1S/C7H14O2/c1-6(8)5-7(2,3)9-4/h5H2,1-4H3",KOKPBCHLPVDQTK-UHFFFAOYSA-N,COC(C)(C)CC(C)=O,0.3326,0.0,1,G1
B-536,"1,3-butanediol","InChI=1S/C4H10O2/c1-4(6)2-3-5/h4-6H,2-3H2,1H3",PUPZLCDOIYMWBV-UHFFFAOYSA-N,CC(O)CCO,1.0452,0.0,1,G1
B-537,aldol,"InChI=1S/C4H8O2/c1-4(6)2-3-5/h3-4,6H,2H2,1H3",HSJKGGMUJITCBW-UHFFFAOYSA-N,CC(O)CC=O,1.055,0.0,1,G1
B-539,butyric acid,"InChI=1S/C4H8O2/c1-2-3-4(5)6/h2-3H2,1H3,(H,5,6)",FERIUCNNQQJTOY-UHFFFAOYSA-N,CCCC(O)=O,-0.1669,0.5815303775384395,3,G4
B-540,crotonic acid,"InChI=1S/C4H6O2/c1-2-3-4(5)6/h2-3H,1H3,(H,5,6)/b3-2+",LDHQCZJRKDOVOX-NSCUHMNNSA-N,C/C=C/C(O)=O,0.0382,0.0241,2,G3
B-543,1-methoxy-2-propanol,"InChI=1S/C4H10O2/c1-4(5)3-6-2/h4-5H,3H2,1-2H3",ARXJGSRGQADJSQ-UHFFFAOYSA-N,COCC(C)O,1.0452,0.0,1,G1
B-544,2-dimethylaminoethanol,"InChI=1S/C4H11NO/c1-5(2)3-4-6/h6H,3-4H2,1-2H3",UEEJHVSXFDXPFK-UHFFFAOYSA-N,CN(C)CCO,1.0499,0.0,1,G1
B-551,diethyl 3-methyl-5-pyrazolyl phosphate,"InChI=1S/C8H15N2O4P/c1-4-12-15(11,13-5-2)14-8-6-7(3)9-10-8/h6H,4-5H2,1-3H3,(H,9,10)",CDCTYRNLXFEDHC-UHFFFAOYSA-N,CCO[P](=O)(OCC)Oc1cc(C)[nH]n1,-2.3696,0.0,1,G1
B-552,m-chlorotoluene,"InChI=1S/C7H7Cl/c1-6-3-2-4-7(8)5-6/h2-5H,1H3",OSOUNOBYRMOXQQ-UHFFFAOYSA-N,Cc1cccc(Cl)c1,-3.5228,0.0,1,G1
B-553,metaldehyde (tetramer),"InChI=1S/C8H16O4/c1-5-9-6(2)11-8(4)12-7(3)10-5/h5-8H,1-4H3",GKKDCARASOJPNG-UHFFFAOYSA-N,CC1OC(C)OC(C)OC(C)O1,-2.8997,0.015149999999999997,2,G3
B-558,cyanuric acid,"InChI=1S/C3H3N3O3/c7-1-4-2(8)6-3(9)5-1/h(H3,4,5,6,7,8,9)",ZFSLODLOARCGLH-UHFFFAOYSA-N,O=C1NC(=O)NC(=O)N1,-1.8098,0.19990000000000008,2,G3
B-572,dibutyl sebacate,"InChI=1S/C18H34O4/c1-3-5-15-21-17(19)13-11-9-7-8-10-12-14-18(20)22-16-6-4-2/h3-16H2,1-2H3",PYGXAGIECVVIOZ-UHFFFAOYSA-N,CCCCOC(=O)CCCCCCCCC(=O)OCCCC,-3.8955,0.0,1,G1
B-573,"hexanedioic acid, bis(2-ethoxyethyl) ester","InChI=1S/C14H26O6/c1-3-17-9-11-19-13(15)7-5-6-8-14(16)20-12-10-18-4-2/h3-12H2,1-2H3",NJEMMCIKSMMBDM-UHFFFAOYSA-N,CCOCCOC(=O)CCCCC(=O)OCCOCC,-2.065,0.0,1,G1
B-574,3-hexyn-2-ol,"InChI=1S/C6H10O/c1-3-4-5-6(2)7/h6-7H,3H2,1-2H3",IFCAMPHNVKBSTF-UHFFFAOYSA-N,CCC#CC(C)O,-0.4121,0.0,1,G1
B-575,isobutyl vinyl ether,"InChI=1S/C6H12O/c1-4-7-5-6(2)3/h4,6H,1,5H2,2-3H3",OZCMOJQQLBXBKI-UHFFFAOYSA-N,CC(C)COC=C,-1.5236,0.0,1,G1
B-576,"1,3-propanediamine, n,n-dimethyl-","InChI=1S/C5H14N2/c1-7(2)5-3-4-6/h3-6H2,1-2H3",IUNMPGNGSSIWFP-UHFFFAOYSA-N,CN(C)CCCN,0.9906,0.0,1,G1
B-582,ethylene cyanohydrin,"InChI=1S/C3H5NO/c4-2-1-3-5/h5H,1,3H2",WSGYTJNNHPZFKR-UHFFFAOYSA-N,OCCC#N,1.1483,0.0,1,G1
B-584,2-(methylamino)ethanol,"InChI=1S/C3H9NO/c1-4-2-3-5/h4-5H,2-3H2,1H3",OPKOKAMJFNKNAS-UHFFFAOYSA-N,CNCCO,1.1243,0.0,1,G1
B-585,"ethanol, 2-hydrazino-","InChI=1S/C2H8N2O/c3-4-1-2-5/h4-5H,1-3H2",GBHCABUWWQUMAJ-UHFFFAOYSA-N,NNCCO,1.1186,0.0,1,G1
B-593,"acetone, semicarbazone","InChI=1S/C4H9N3O/c1-3(2)6-7-4(5)8/h1-2H3,(H3,5,7,8)",HQDAJGNZGNZGCO-UHFFFAOYSA-N,CC(C)=NNC(N)=O,-0.2674,0.0,1,G1
B-596,isoamyl formate,"InChI=1S/C6H12O2/c1-6(2)3-4-8-5-7/h5-6H,3-4H2,1-2H3",XKYICAQFSCFURC-UHFFFAOYSA-N,CC(C)CCOC=O,-1.5206,0.01319999999999999,2,G3
B-597,2-methoxyethyl acetate,"InChI=1S/C5H10O3/c1-5(6)8-4-3-7-2/h3-4H2,1-2H3",XLLIQLLCWZCATF-UHFFFAOYSA-N,COCCOC(C)=O,0.9276,0.0,1,G1
B-598,"1,4-dibromobutane",InChI=1S/C4H8Br2/c5-3-1-2-4-6/h1-4H2,ULTHEAFYOOPTTB-UHFFFAOYSA-N,BrCCCCBr,-2.7902,0.0,1,G1
B-599,"1,4-dichlorobutane",InChI=1S/C4H8Cl2/c5-3-1-2-4-6/h1-4H2,KJDRSWPQXHESDQ-UHFFFAOYSA-N,ClCCCCCl,-0.92,0.0,1,G1
B-600,"1,4-dichloro-2-butene(trans)","InChI=1S/C4H6Cl2/c5-3-1-2-4-6/h1-2H,3-4H2/b2-1+",FQDIANVAWVHZIR-OWOJBTEDSA-N,ClC/C=C/CCl,-2.1675,0.08299999999999996,2,G3
B-603,"1,4-butanediol","InChI=1S/C4H10O2/c5-3-1-2-4-6/h5-6H,1-4H2",WERYXYBDKMZEQL-UHFFFAOYSA-N,OCCCCO,1.0452,0.0,1,G1
B-604,"2-butyne-1,4-diol","InChI=1S/C4H6O2/c5-3-1-2-4-6/h5-6H,3-4H2",DLDJFQGPPSQZKI-UHFFFAOYSA-N,OCC#CCO,0.6379,0.0,1,G1
B-605,1-pentanethiol,"InChI=1S/C5H12S/c1-2-3-4-5-6/h6H,2-5H2,1H3",ZRKMQKLGEQPLNS-UHFFFAOYSA-N,CCCCCS,-2.8248,0.0,1,G1
B-607,2-chloroethyl vinyl ether,"InChI=1S/C4H7ClO/c1-2-6-4-3-5/h2H,1,3-4H2",DNJRKFKAFWSXSE-UHFFFAOYSA-N,ClCCOC=C,-2.3951,0.0,1,G1
B-613,diisobutylamine,"InChI=1S/C8H19N/c1-5-7(3)9-8(4)6-2/h7-9H,5-6H2,1-4H3/p+1/t7-,8+",OBYVIBDTOCAXSN-OCAPTIKFSA-O,CC[C@H](C)[NH2+][C@H](C)CC,-1.7690000000000001,0.0,1,G1
B-615,"acetic acid, 2,2'-oxybis-","InChI=1S/C4H6O5/c5-3(6)1-9-2-4(7)8/h1-2H2,(H,5,6)(H,7,8)",QEVGZEDELICMKH-UHFFFAOYSA-N,OC(=O)COCC(O)=O,0.4927,0.0,1,G1
B-621,"triethylene glycol, dinitrate",InChI=1S/C6H12N2O8/c9-7(10)15-5-3-13-1-2-14-4-6-16-8(11)12/h1-6H2,AGCQZYRSTIRJFM-UHFFFAOYSA-N,[O-][N+](=O)OCCOCCOCCO[N+]([O-])=O,-1.561,0.0,1,G1
B-623,diethylenetriamine,"InChI=1S/C4H13N3/c5-1-3-7-4-2-6/h7H,1-6H2",RPNUMPOLZDHAAY-UHFFFAOYSA-N,NCCNCCN,0.9864,0.0,1,G1
B-624,2-(2-aminoethylamino)ethanol,"InChI=1S/C4H12N2O/c5-1-2-6-3-4-7/h6-7H,1-5H2",LHIJANUOQQMGNT-UHFFFAOYSA-N,NCCNCCO,0.9823,0.0,1,G1
B-626,diethylene glycol,"InChI=1S/C4H10O3/c5-1-3-7-4-2-6/h5-6H,1-4H2",MTHSVFCYNBDYFN-UHFFFAOYSA-N,OCCOCCO,0.9742,0.0,1,G1
B-627,"2,2'-thiobisethanol","InChI=1S/C4H10O2S/c5-1-3-7-4-2-6/h5-6H,1-4H2",YODZTKMDCQEPHD-UHFFFAOYSA-N,OCCSCCO,0.9129999999999999,0.0,1,G1
B-631,"ethanol, 2-(butylamino)-","InChI=1S/C6H15NO/c1-2-3-4-7-5-6-8/h7-8H,2-6H2,1H3",LJDSTRZHPWMDPG-UHFFFAOYSA-N,CCCCNCCO,0.9311,0.0,1,G1
B-633,diethylene glycol monomethyl ether,"InChI=1S/C5H12O3/c1-7-4-5-8-3-2-6/h6H,2-5H2,1H3",SBASXUCJHJRPEV-UHFFFAOYSA-N,COCCOCCO,0.9203,0.0,1,G1
B-635,1-chlorooctane,"InChI=1S/C8H17Cl/c1-2-3-4-5-6-7-8-9/h2-8H2,1H3",CNDHHGUSRIZDSL-UHFFFAOYSA-N,CCCCCCCCCl,-4.4829,0.0,1,G1
B-638,bis(2-chloroethoxy)methane,InChI=1S/C5H10Cl2O2/c6-1-3-8-5-9-4-2-7/h1-5H2,NLXGURFLBLRZRO-UHFFFAOYSA-N,ClCCOCOCCCl,-1.3461,0.0,1,G1
B-640,2-butoxyethanol acetate,"InChI=1S/C8H16O3/c1-3-4-5-10-6-7-11-8(2)9/h3-7H2,1-2H3",NQBXSWAWVZHKBZ-UHFFFAOYSA-N,CCCCOCCOC(C)=O,-1.2504,0.0,1,G1
B-641,carbitol acetate,"InChI=1S/C8H16O4/c1-3-10-4-5-11-6-7-12-8(2)9/h3-7H2,1-2H3",FPZWZCWUIYYYBU-UHFFFAOYSA-N,CCOCCOCCOC(C)=O,0.754,0.0,1,G1
B-644,triethylene glycol,"InChI=1S/C6H14O4/c7-1-3-9-5-6-10-4-2-8/h7-8H,1-6H2",ZIBGPFATKBEMQZ-UHFFFAOYSA-N,OCCOCCOCCO,0.8234,0.0,1,G1
B-645,diethylene glycol mono-n-butyl ether,"InChI=1S/C8H18O3/c1-2-3-5-10-7-8-11-6-4-9/h9H,2-8H2,1H3",OAYXUHPQHDHDDZ-UHFFFAOYSA-N,CCCCOCCOCCO,0.7899,0.0,1,G1
B-646,methoxy triethylene glycol,"InChI=1S/C7H16O4/c1-9-4-5-11-7-6-10-3-2-8/h8H,2-7H2,1H3",JLGLQAWTXXGVEM-UHFFFAOYSA-N,COCCOCCOCCO,0.7846,0.0,1,G1
B-648,ethoxytriethylene glycol,"InChI=1S/C8H18O4/c1-2-10-5-6-12-8-7-11-4-3-9/h9H,2-8H2,1H3",WFSMVVDJSNMRAR-UHFFFAOYSA-N,CCOCCOCCOCCO,0.7490000000000001,0.0,1,G1
B-650,"ethanol, 2- 2-(hexyloxy)ethoxy -","InChI=1S/C10H22O3/c1-2-3-4-5-7-12-9-10-13-8-6-11/h11H,2-10H2,1H3",GZMAAYIALGURDQ-UHFFFAOYSA-N,CCCCCCOCCOCCO,-1.0490000000000002,0.0,1,G1
B-651,tetraethylene glycol,"InChI=1S/C8H18O5/c9-1-3-11-5-7-13-8-6-12-4-2-10/h9-10H,1-8H2",UWHCKJMYHZGTIT-UHFFFAOYSA-N,OCCOCCOCCOCCO,0.7117,0.0,1,G1
B-653,docosanoic acid,"InChI=1S/C22H44O2/c1-2-3-4-5-6-7-8-9-10-11-12-13-14-15-16-17-18-19-20-21-22(23)24/h2-21H2,1H3,(H,23,24)",UKMSUNONTOPOIO-UHFFFAOYSA-N,CCCCCCCCCCCCCCCCCCCCCC(O)=O,-7.3281,0.0,1,G1
B-658,"3-buten-2-ol, 2-methyl-","InChI=1S/C5H10O/c1-4-5(2,3)6/h4,6H,1H2,2-3H3",HNVRRHSXBLFLIG-UHFFFAOYSA-N,CC(C)(O)C=C,1.0648,0.0,1,G1
B-661,dimefox,"InChI=1S/C4H12FN2OP/c1-6(2)9(5,8)7(3)4/h1-4H3",PGJBQBDNXAZHBP-UHFFFAOYSA-N,CN(C)[P](F)(=O)N(C)C,0.8121,0.0,1,G1
B-662,chlorendic acid,"InChI=1S/C9H4Cl6O4/c10-3-4(11)8(13)2(6(18)19)1(5(16)17)7(3,12)9(8,14)15/h1-2H,(H,16,17)(H,18,19)",DJKGDNKYTKCJKD-UHFFFAOYSA-N,OC(=O)C1C(C(O)=O)C2(Cl)C(=C(Cl)C1(Cl)C2(Cl)Cl)Cl,-2.0457,0.0,1,G1
B-663,2-amino-2-methylpropanediol,"InChI=1S/C4H11NO2/c1-4(5,2-6)3-7/h6-7H,2-3,5H2,1H3",UXFQFBNBSPQBJW-UHFFFAOYSA-N,CC(N)(CO)CO,0.9782,0.0,1,G1
B-664,"1,3-propanediol, 2-amino-2-ethyl-","InChI=1S/C5H13NO2/c1-2-5(6,3-7)4-8/h7-8H,2-4,6H2,1H3",IOAOAKDONABGPZ-UHFFFAOYSA-N,CCC(N)(CO)CO,0.9239,0.0,1,G1
B-665,"2,2-diethyl-1,3-propanediol","InChI=1S/C7H16O2/c1-3-7(4-2,5-8)6-9/h8-9H,3-6H2,1-2H3",XRVCFZPJAHWYTB-UHFFFAOYSA-N,CCC(CC)(CO)CO,0.1798,0.0,1,G1
B-667,octyldiphenyl phosphate,"InChI=1S/C20H27O4P/c1-2-3-4-5-6-13-18-22-25(21,23-19-14-9-7-10-15-19)24-20-16-11-8-12-17-20/h7-12,14-17H,2-6,13,18H2,1H3",YAFOVCNAQTZDQB-UHFFFAOYSA-N,CCCCCCCCO[P](=O)(Oc1ccccc1)Oc2ccccc2,-6.4131,0.0,1,G1
B-669,tri-2-chloroethyl phosphate,"InChI=1S/C6H12Cl3O4P/c7-1-4-11-14(10,12-5-2-8)13-6-3-9/h1-6H2",HQUQLFOMPYWACS-UHFFFAOYSA-N,ClCCO[P](=O)(OCCCl)OCCCl,-1.6105,0.0,1,G1
B-672,hydroxyacetone,"InChI=1S/C3H6O2/c1-3(5)2-4/h4H,2H2,1H3",XLSMFKSTNGKWQX-UHFFFAOYSA-N,CC(=O)CO,1.1303,0.0,1,G1
B-673,isopropenyl methyl ether,"InChI=1S/C4H8O/c1-4(2)5-3/h1H2,2-3H3",YOWQWFMSQCOSBA-UHFFFAOYSA-N,COC(C)=C,1.1420000000000001,0.0,1,G1
B-674,tetrafluoroethylene,InChI=1S/C2F4/c3-1(4)2(5)6,BFKJFAAPBSQJPD-UHFFFAOYSA-N,FC(F)=C(F)F,-2.8001,0.0,1,G1
B-675,"1-(hydroxymethyl)-5,5-dimethylhydantoin","InChI=1S/C6H10N2O3/c1-6(2)4(10)7-5(11)8(6)3-9/h9H,3H2,1-2H3,(H,7,10,11)",SIQZJFKTROUNPI-UHFFFAOYSA-N,CC1(C)N(CO)C(=O)NC1=O,0.8009,0.0,1,G1
B-677,"butanoic acid, 2-methyl-","InChI=1S/C5H10O2/c1-3-4(2)5(6)7/h4H,3H2,1-2H3,(H,6,7)",WLAMNBDJUVNPJU-UHFFFAOYSA-N,CCC(C)C(O)=O,-0.3559,0.0,1,G1
B-678,1-amino-4-hydroxyanthraquinone,"InChI=1S/C14H9NO3/c15-9-5-6-10(16)12-11(9)13(17)7-3-1-2-4-8(7)14(12)18/h1-6,16H,15H2",AQXYVFBSOOBBQV-UHFFFAOYSA-N,Nc1ccc(O)c2C(=O)c3ccccc3C(=O)c12,-3.824,0.0,1,G1
B-679,"1,5-anthraquinonedisulfonic acid","InChI=1S/C14H8O8S2/c15-13-7-3-1-5-9(23(17,18)19)11(7)14(16)8-4-2-6-10(12(8)13)24(20,21)22/h1-6H,(H,17,18,19)(H,20,21,22)",OZTBHAGJSKTDGM-UHFFFAOYSA-N,O[S](=O)(=O)c1cccc2C(=O)c3c(cccc3[S](O)(=O)=O)C(=O)c12,0.2572,0.0,1,G1
B-680,2-aminoanthraquinone,"InChI=1S/C14H9NO2/c15-8-5-6-11-12(7-8)14(17)10-4-2-1-3-9(10)13(11)16/h1-7H,15H2",XOGPDSATLSAZEK-UHFFFAOYSA-N,Nc1ccc2C(=O)c3ccccc3C(=O)c2c1,-6.1366,0.0,1,G1
B-681,dichlone,InChI=1S/C10H4Cl2O2/c11-7-8(12)10(14)6-4-2-1-3-5(6)9(7)13/h1-4H,SVPKNMBRVBMTLB-UHFFFAOYSA-N,ClC1=C(Cl)C(=O)c2ccccc2C1=O,-4.453,0.9161619216419481,3,G4
B-682,bis(methoxyethyl)phthalate,"InChI=1S/C14H18O6/c1-17-7-9-19-13(15)11-5-3-4-6-12(11)14(16)20-10-8-18-2/h3-6H,7-10H2,1-2H3",HSUIVCLOAAJSRE-UHFFFAOYSA-N,COCCOC(=O)c1ccccc1C(=O)OCCOC,-1.5213,0.0,1,G1
B-683,dioctyl phthalate,"InChI=1S/C24H38O4/c1-3-5-7-9-11-15-19-27-23(25)21-17-13-14-18-22(21)24(26)28-20-16-12-10-8-6-4-2/h13-14,17-18H,3-12,15-16,19-20H2,1-2H3",MQIUGAXCHLFZKX-UHFFFAOYSA-N,CCCCCCCCOC(=O)c1ccccc1C(=O)OCCCCCCCC,-7.2493,1.0671499999999998,2,G2
B-685,cinchonine,"InChI=1S/C19H22N2O/c1-2-13-12-21-10-8-14(13)11-18(21)19(22)16-7-9-20-17-6-4-3-5-15(16)17/h2-7,9,13-14,18-19,22H,1,8,10-12H2/t13-,14-,18+,19-/m0/s1",KMPWYEUPVWOPIM-QAMTZSDWSA-N,O[C@H]([C@H]1C[C@@H]2CCN1C[C@@H]2C=C)c3ccnc4ccccc34,-3.0887,0.0,1,G1
B-686,"1-naphthalenamine, n-ethyl-","InChI=1S/C12H13N/c1-2-13-12-9-5-7-10-6-3-4-8-11(10)12/h3-9,13H,2H2,1H3",KDFFXYVOTKKBDI-UHFFFAOYSA-N,CCNc1cccc2ccccc12,-3.1922,0.0,1,G1
B-690,4-chloro-1-nitro-2(trifluoromethyl)benzene,"InChI=1S/C7H3ClF3NO2/c8-4-1-2-6(12(13)14)5(3-4)7(9,10)11/h1-3H",CFPIGEXZPWTNOR-UHFFFAOYSA-N,[O-][N+](=O)c1ccc(Cl)cc1C(F)(F)F,-3.3533,0.0,1,G1
B-692,"p-(2,4-dinitroaniline)phenol","InChI=1S/C12H9N3O5/c16-10-4-1-8(2-5-10)13-11-6-3-9(14(17)18)7-12(11)15(19)20/h1-7,13,16H",BCPQALWAROJVLE-UHFFFAOYSA-N,Oc1ccc(Nc2ccc(cc2[N+]([O-])=O)[N+]([O-])=O)cc1,-5.444,0.0,1,G1
B-693,"2-naphthalenesulfonic acid, 4-hydroxy-6-(phenyla","InChI=1S/C16H13NO4S/c18-16-10-14(22(19,20)21)8-11-6-7-13(9-15(11)16)17-12-4-2-1-3-5-12/h1-10,17-18H,(H,19,20,21)",QEAYLNJEDDOYNQ-UHFFFAOYSA-N,Oc1cc(cc2ccc(Nc3ccccc3)cc12)[S](O)(=O)=O,-1.9763,0.0,1,G1
B-694,isolan,"InChI=1S/C10H17N3O2/c1-7(2)13-9(6-8(3)11-13)15-10(14)12(4)5/h6-7H,1-5H3",RNNBHZYEKNHLKT-UHFFFAOYSA-N,CC(C)n1nc(C)cc1OC(=O)N(C)C,0.6752,0.0,1,G1
B-695,bis (2-hydroxy-3tert-butyl-5-methylphenyl) metha,"InChI=1S/C23H32O2/c1-14-9-16(20(24)18(11-14)22(3,4)5)13-17-10-15(2)12-19(21(17)25)23(6,7)8/h9-12,24-25H,13H2,1-8H3",KGRVJHAUYBGFFP-UHFFFAOYSA-N,Cc1cc(Cc2cc(C)cc(c2O)C(C)(C)C)c(O)c(c1)C(C)(C)C,-7.2311,0.0,1,G1
B-698,"benzenemethanol, 4-chloro-.alpha.-phenyl-","InChI=1S/C13H11ClO/c14-12-8-6-11(7-9-12)13(15)10-4-2-1-3-5-10/h1-9,13,15H",AJYOOHCNOXWTKJ-UHFFFAOYSA-N,OC(c1ccccc1)c2ccc(Cl)cc2,-3.4886,0.0,1,G1
B-708,"2,2'-dithiobisbenzothiazole",InChI=1S/C14H8N2S4/c1-3-7-11-9(5-1)15-13(17-11)19-20-14-16-10-6-2-4-8-12(10)18-14/h1-8H,AFZSMODLJJCVPP-UHFFFAOYSA-N,S(Sc1sc2ccccc2n1)c3sc4ccccc4n3,-4.5218,0.0,1,G1
B-709,pyrethrin i,"InChI=1S/C21H28O3/c1-7-8-9-10-15-14(4)18(12-17(15)22)24-20(23)19-16(11-13(2)3)21(19,5)6/h7-9,11,16,18-19H,1,10,12H2,2-6H3/b9-8-/t16-,18+,19+/m1/s1",ROVGZAWFACYCSP-VUMXUWRFSA-N,CC(C)=C[C@@H]1[C@@H](C(=O)O[C@H]2CC(=O)C(=C2C)C\C=C/C=C)C1(C)C,-6.2155,0.0,1,G1
B-710,pyrethrin ii,"InChI=1S/C22H28O5/c1-7-8-9-10-15-14(3)18(12-17(15)23)27-21(25)19-16(22(19,4)5)11-13(2)20(24)26-6/h7-9,11,16,18-19H,1,10,12H2,2-6H3/b9-8-,13-11+/t16-,18+,19+/m1/s1",VJFUPGQZSXIULQ-XIGJTORUSA-N,COC(=O)C(/C)=C/[C@@H]1[C@@H](C(=O)O[C@H]2CC(=O)C(=C2C)C\C=C/C=C)C1(C)C,-4.6168,0.0,1,G1
B-716,"2-propanol, 1,1',1''-nitrilotris-","InChI=1S/C9H21NO3/c1-7(11)4-10(5-8(2)12)6-9(3)13/h7-9,11-13H,4-6H2,1-3H3",SLINHMUFWFWBMU-UHFFFAOYSA-N,CC(O)CN(CC(C)O)CC(C)O,0.6374,0.0,1,G1
B-719,2-anilinoethanol,"InChI=1S/C8H11NO/c10-7-6-9-8-4-2-1-3-5-8/h1-5,9-10H,6-7H2",MWGATWIBSKHFMR-UHFFFAOYSA-N,OCCNc1ccccc1,-0.4745,0.0,1,G1
B-722,2-methylpentaldehyde,"InChI=1S/C6H12O/c1-3-4-6(2)5-7/h5-6H,3-4H2,1-2H3",FTZILAQGHINQQR-UHFFFAOYSA-N,CCCC(C)C=O,-1.3774,0.0,1,G1
B-726,"3-methylene-7-methyl-1,6-octadiene  (myrcene)","InChI=1S/C10H16/c1-5-10(4)8-6-7-9(2)3/h5,7H,1,4,6,8H2,2-3H3",UAHWPYUMFXYFJY-UHFFFAOYSA-N,CC(C)=CCCC(=C)C=C,-4.3861,0.0,1,G1
B-727,methylformamide,"InChI=1S/C2H5NO/c1-3-2-4/h2H,1H3,(H,3,4)",ATHHXGZTWNVVOU-UHFFFAOYSA-N,CNC=O,1.2286,0.0,1,G1
B-728,4-hydroxy-4-methyl-2-pentanone,"InChI=1S/C6H12O2/c1-5(7)4-6(2,3)8/h8H,4H2,1-3H3",SWXVUIWOUIDPGS-UHFFFAOYSA-N,CC(=O)CC(C)(C)O,0.9349,0.0,1,G1
B-731,dioctyl adipate,"InChI=1S/C22H42O4/c1-3-5-7-9-11-15-19-25-21(23)17-13-14-18-22(24)26-20-16-12-10-8-6-4-2/h3-20H2,1-2H3",NEHDRDVHPTWWFG-UHFFFAOYSA-N,CCCCCCCCOC(=O)CCCCC(=O)OCCCCCCCC,-5.6768,0.0,1,G1
B-732,1-[(2-aminoethyl)amino]-2-propanol,"InChI=1S/C5H14N2O/c1-5(8)4-7-3-2-6/h5,7-8H,2-4,6H2,1H3",CWKVFRNCODQPDB-UHFFFAOYSA-N,CC(O)CNCCN,0.9275,0.0,1,G1
B-735,"acetic acid, 2,2'-thiobis-","InChI=1S/C4H6O4S/c5-3(6)1-9-2-4(7)8/h1-2H2,(H,5,6)(H,7,8)",UVZICZIVKIMRNE-UHFFFAOYSA-N,OC(=O)CSCC(O)=O,0.4255,0.0,1,G1
B-737,diethylene glycol monobutyl ether acetate,"InChI=1S/C10H20O4/c1-3-4-5-12-6-7-13-8-9-14-10(2)11/h3-9H2,1-2H3",VXQBJTKSVGFQOL-UHFFFAOYSA-N,CCCCOCCOCCOC(C)=O,-0.8188,0.16089999999999996,2,G3
B-738,n-decane,"InChI=1S/C10H22/c1-3-5-7-9-10-8-6-4-2/h3-10H2,1-2H3",DIOQZVSQGTUSAI-UHFFFAOYSA-N,CCCCCCCCCC,-6.4372,0.0,1,G1
B-740,n-dodecylamine,"InChI=1S/C12H27N/c1-2-3-4-5-6-7-8-9-10-11-12-13/h2-13H2,1H3",JRBPAEWTRLWTQC-UHFFFAOYSA-N,CCCCCCCCCCCCN,-3.3759,0.0,1,G1
B-742,methane arsonate,"InChI=1S/CH5AsO3/c1-2(3,4)5/h1H3,(H2,3,4,5)",QYPPRTNMGCREIM-UHFFFAOYSA-N,C[As](O)(O)=O,0.2622,0.0,1,G1
B-743,tetrakis(hydroxymethyl)phosphonium chloride,"InChI=1S/C4H12O4P.ClH/c5-1-9(2-6,3-7)4-8;/h5-8H,1-4H2;1H/q+1;/p-1",AKXUUJCMWZFYMV-UHFFFAOYSA-M,[Cl-].OC[P+](CO)(CO)CO,0.322,0.0,1,G1
B-744,2-amino-2-methyl-1-propanol,"InChI=1S/C4H11NO/c1-4(2,5)3-6/h6H,3,5H2,1-2H3",CBTVGIZVANVGBH-UHFFFAOYSA-N,CC(C)(N)CO,1.0499,0.0,1,G1
B-745,"1,2-dibromotetrafluoroethane","InChI=1S/C2Br2F4/c3-1(5,6)2(4,7)8",KVBKAPANDHPRDG-UHFFFAOYSA-N,FC(F)(Br)C(F)(F)Br,-4.9376,0.0,1,G1
B-746,camphoric acid,"InChI=1S/C10H16O4/c1-9(2)6(7(11)12)4-5-10(9,3)8(13)14/h6H,4-5H2,1-3H3,(H,11,12)(H,13,14)/p-2/t6-,10+/m1/s1",LSPHULWDVZXLIL-LDWIPMOCSA-L,CC1(C)[C@H](CC[C@@]1(C)C([O-])=O)C([O-])=O,-1.4207,0.0,1,G1