ID,Name,InChI,InChIKey,SMILES,Solubility,SD,Occurrences,Group
B-2737,zolone,"InChI=1S/C12H16NO4PS2/c1-3-15-18(19,16-4-2)20-9-13-10-7-5-6-8-11(10)17-12(13)14/h5-8H,3-4,9H2,1-2H3",YAAFKGCBOCRHIF-UHFFFAOYSA-N,CCO[P](=S)(OCC)SCN1C(=O)Oc2ccccc12,-5.1905,0.0,1,G1
B-2740,Methacrifos,"InChI=1S/C7H13O5PS/c1-6(7(8)9-2)5-12-13(14,10-3)11-4/h5H,1-4H3/b6-5+",NTAHCMPOMKHKEU-AATRIKPKSA-N,COC(=O)C(/C)=C/O[P](=S)(OC)OC,-2.7785,0.0,1,G1
B-2741,cafaminol,"InChI=1S/C11H17N5O3/c1-13(5-6-17)10-12-8-7(14(10)2)9(18)16(4)11(19)15(8)3/h17H,5-6H2,1-4H3",ZGNRRVAPHPANFI-UHFFFAOYSA-N,CN(CCO)c1nc2N(C)C(=O)N(C)C(=O)c2n1C,-0.6488,0.0,1,G1
B-2743,"3(2h)-thiazoleacetic acid, 4-methyl-2-thioxo-","InChI=1S/C6H7NO2S2/c1-4-3-11-6(10)7(4)2-5(8)9/h3H,2H2,1H3,(H,8,9)",FVQQWSSTYVBNST-UHFFFAOYSA-N,CC1=CSC(=S)N1CC(O)=O,-1.9632,0.0,1,G1
B-2744,metrizamide,"InChI=1S/C18H22I3N3O8/c1-5(26)22-12-9(19)8(10(20)14(11(12)21)24(3)6(2)27)17(30)23-13-16(29)15(28)7(4-25)32-18(13)31/h7,13,15-16,18,25,28-29,31H,4H2,1-3H3,(H,22,26)(H,23,30)/t7?,13?,15-,16?,18+/m1/s1",BAQCROVBDNBEEB-OPRFMTNSSA-N,CN(C(C)=O)c1c(I)c(NC(C)=O)c(I)c(C(=O)NC2[C@@H](O)OC(CO)[C@@H](O)C2O)c1I,-0.1982,0.0,1,G1
B-2745,propetamphos,"InChI=1S/C10H20NO4PS/c1-6-11-16(17,13-5)15-9(4)7-10(12)14-8(2)3/h7-8H,6H2,1-5H3,(H,11,17)/b9-7-",BZNDWPRGXNILMS-CLFYSBASSA-N,CCN[P](=S)(OC)OC(/C)=C\C(=O)OC(C)C,-3.4078,0.0,1,G1
B-2746,3-methyl-2-heptanol,"InChI=1S/C8H18O/c1-4-5-6-7(2)8(3)9/h7-9H,4-6H2,1-3H3",SZERMVMTUUAYML-UHFFFAOYSA-N,CCCCC(C)C(C)O,-2.0578,0.16889999999999994,2,G3
B-2749,lyral,"InChI=1S/C13H22O2/c1-13(2,15)9-3-4-11-5-7-12(10-14)8-6-11/h5,10,12,15H,3-4,6-9H2,1-2H3",ORMHZBNNECIKOH-UHFFFAOYSA-N,CC(C)(O)CCCC1=CCC(CC1)C=O,-1.5376,0.0,1,G1
B-2750,heptachloronaphthalene,InChI=1S/C10HCl7/c11-2-1-3(12)6(13)5-4(2)7(14)9(16)10(17)8(5)15/h1H,QYEGXUUXWMKHHS-UHFFFAOYSA-N,Clc1cc(Cl)c2c(Cl)c(Cl)c(Cl)c(Cl)c2c1Cl,-8.775,0.0,1,G1
B-2751,divicine,"InChI=1S/C4H6N4O2/c5-2-1(9)3(10)8-4(6)7-2/h2H,5H2,(H3,6,7,8,10)",NVANETMVFYSFSK-UHFFFAOYSA-N,NC1N=C(N)NC(=O)C1=O,-1.6978,0.0,1,G1
B-2752,"2-furoic acid, 3,4,5-trichloro-","InChI=1S/C5HCl3O3/c6-1-2(7)4(8)11-3(1)5(9)10/h(H,9,10)",WKDGIASDCHPIDT-UHFFFAOYSA-N,OC(=O)c1oc(Cl)c(Cl)c1Cl,-2.2193,0.0,1,G1
B-2753,"9-octadecenoic acid, 12-(sulfooxy)-, (z)-","InChI=1S/C18H34O6S/c1-2-3-4-11-14-17(24-25(21,22)23)15-12-9-7-5-6-8-10-13-16-18(19)20/h9,12,17H,2-8,10-11,13-16H2,1H3,(H,19,20)(H,21,22,23)/b12-9-",CYKFQSXTIVGYDT-XFXZXTDPSA-N,CCCCCCC(C\C=C/CCCCCCCC(O)=O)O[S](O)(=O)=O,-0.5781,0.0,1,G1
B-2754,"4-quinolinecarboxylic acid, 1,2-dihydro-6-methox","InChI=1S/C11H9NO4/c1-16-6-2-3-9-7(4-6)8(11(14)15)5-10(13)12-9/h2-5H,1H3,(H,12,13)(H,14,15)/p-1",ATQXNYQCZFMIKY-UHFFFAOYSA-M,COc1ccc2NC(=O)C=C(C([O-])=O)c2c1,-3.1104,0.0,1,G1
B-2755,"d-glucuronic acid, .gamma.-lactone","InChI=1S/C6H8O6/c7-1-2(8)5-3(9)4(10)6(11)12-5/h1-5,8-10H/t2-,3+,4-,5+/m0/s1",UYUXSRADSPPKRZ-SKNVOMKLSA-N,O[C@@H](C=O)[C@H]1OC(=O)[C@@H](O)[C@H]1O,0.1641,0.0,1,G1
B-2756,"2-furancarboxylic acid, 3,4-dibromo-","InChI=1S/C5H2Br2O3/c6-2-1-10-4(3(2)7)5(8)9/h1H,(H,8,9)",ISBXWVSYAWHMSU-UHFFFAOYSA-N,OC(=O)c1occ(Br)c1Br,-2.0887,0.0,1,G1
B-2757,"succinamic acid, 3-amino-2-hydroxy-","InChI=1S/C4H8N2O4/c5-1(3(6)8)2(7)4(9)10/h1-2,7H,5H2,(H2,6,8)(H,9,10)",XTAAXERUXNEDCQ-UHFFFAOYSA-N,NC(C(O)C(O)=O)C(N)=O,-1.1494,0.0,1,G1
B-2758,"2(1h)-pyrimidinone, 4-amino-5-ethyl-","InChI=1S/C6H9N3O/c1-2-4-3-8-6(10)9-5(4)7/h3H,2H2,1H3,(H3,7,8,9,10)",CZJGCEGNCSGRBI-UHFFFAOYSA-N,CCC1=CNC(=O)N=C1N,-1.0197,0.0,1,G1
B-2760,"2,3,3',4,4'-pentachloro-1,1'-biphenyl",InChI=1S/C12H5Cl5/c13-8-3-1-6(5-10(8)15)7-2-4-9(14)12(17)11(7)16/h1-5H,WIDHRBRBACOVOY-UHFFFAOYSA-N,Clc1ccc(cc1Cl)c2ccc(Cl)c(Cl)c2Cl,-7.9823,0.5111743103438942,3,G4
B-2761,"1,2-dithiane-3,6-dicarboxylic acid, trans-","InChI=1S/C6H8O4S2/c7-5(8)3-1-2-4(6(9)10)12-11-3/h3-4H,1-2H2,(H,7,8)(H,9,10)/t3-,4-/m1/s1",NQRRVGBUZRSXRF-QWWZWVQMSA-N,OC(=O)[C@H]1CC[C@@H](SS1)C(O)=O,-1.5241,0.0,1,G1
B-2764,m-bromocinnamic acid,"InChI=1S/C9H7BrO2/c10-8-3-1-2-7(6-8)4-5-9(11)12/h1-6H,(H,11,12)/b5-4+",YEMUSDCFQUBPAL-SNAWJCMRSA-N,OC(=O)/C=C/c1cccc(Br)c1,-2.636,0.0,1,G1
B-2767,2-ethylacetanilide,"InChI=1S/C10H13NO/c1-3-9-6-4-5-7-10(9)11-8(2)12/h4-7H,3H2,1-2H3,(H,11,12)",ZXOVAGUQXNXKHF-UHFFFAOYSA-N,CCc1ccccc1NC(C)=O,-1.5906,0.0,1,G1
B-2768,endosulfan (beta),"InChI=1S/C9H6Cl6O3S/c10-5-6(11)8(13)4-2-18-19(16)17-1-3(4)7(5,12)9(8,14)15/h3-4H,1-2H2/t3-,4+,7-,8?,19?/m0/s1",RDYMFSUJUZBWLH-VQDHCCOSSA-N,ClC1=C(Cl)C2(Cl)[C@@H]3CO[S](=O)OC[C@@H]3[C@@]1(Cl)C2(Cl)Cl,-5.9563,0.0,1,G1
B-2774,"ethanone, 1-(3,4,5-trihydroxyphenyl)-","InChI=1S/C8H8O4/c1-4(9)5-2-6(10)8(12)7(11)3-5/h2-3,10-12H,1H3",IBKQQKPQRYUGBJ-UHFFFAOYSA-N,CC(=O)c1cc(O)c(O)c(O)c1,-1.4711,0.0,1,G1
B-2775,isopropalin,"InChI=1S/C15H23N3O4/c1-5-7-16(8-6-2)15-13(17(19)20)9-12(11(3)4)10-14(15)18(21)22/h9-11H,5-8H2,1-4H3",NEKOXWSIMFDGMA-UHFFFAOYSA-N,CCCN(CCC)c1c(cc(cc1[N+]([O-])=O)C(C)C)[N+]([O-])=O,-6.4491,0.0204500000000003,2,G3