ID,Name,InChI,InChIKey,SMILES,Solubility,SD,Occurrences,Group
B-2219,"diethylamine, hydrobromide","InChI=1S/C4H11N.BrH/c1-3-5-4-2;/h5H,3-4H2,1-2H3;1H",AATGHKSFEUVOPF-UHFFFAOYSA-N,[Br-].CC[NH2+]CC,0.8123,0.0,1,G1
B-2220,"benzenesulfonamide, 3-amino-4-methyl-","InChI=1S/C7H10N2O2S/c1-5-2-3-6(4-7(5)8)12(9,10)11/h2-4H,8H2,1H3,(H2,9,10,11)",HCZDHXMDYWZPPN-UHFFFAOYSA-N,Cc1ccc(cc1N)[S](N)(=O)=O,-1.9169,0.0,1,G1
B-2221,"lactamide, n-octyl-","InChI=1S/C11H23NO2/c1-3-4-5-6-7-8-9-12-11(14)10(2)13/h10,13H,3-9H2,1-2H3,(H,12,14)",QGZRRRDVKLFCCS-UHFFFAOYSA-N,CCCCCCCCNC(=O)C(C)O,-2.2827,0.0,1,G1
B-2222,"lactamide, n-decyl-","InChI=1S/C13H27NO2/c1-3-4-5-6-7-8-9-10-11-14-13(16)12(2)15/h12,15H,3-11H2,1-2H3,(H,14,16)",NUXGELRNTBNWTF-UHFFFAOYSA-N,CCCCCCCCCCNC(=O)C(C)O,-3.3605,0.0,1,G1
B-2223,"propanoic acid, 2-hydroxy-, 1-methyl-2-oxo-2-(2-","InChI=1S/C9H14O5/c1-4-5-13-9(12)7(3)14-8(11)6(2)10/h4,6-7,10H,1,5H2,2-3H3",CPKMYVLHYLGADM-UHFFFAOYSA-N,CC(O)C(=O)OC(C)C(=O)OCC=C,-0.6826,0.0,1,G1
B-2224,"d-glucitol, 1-deoxy-1-(methylamino)-","InChI=1S/C7H17NO5/c1-8-2-4(10)6(12)7(13)5(11)3-9/h4-13H,2-3H2,1H3",MBBZMMPHUWSWHV-UHFFFAOYSA-N,CNCC(O)C(O)C(O)C(O)CO,0.4084,0.15030000000000004,2,G3
B-2225,"propanoic acid, 2-(acetyloxy)-, methyl ester","InChI=1S/C6H10O4/c1-4(6(8)9-3)10-5(2)7/h4H,1-3H3",QTFFGYLLUHQSAS-UHFFFAOYSA-N,COC(=O)C(C)OC(C)=O,-0.2617,0.0,1,G1
B-2226,"glycine, n,n-bis(2-cyanoethyl)-","InChI=1S/C8H11N3O2/c9-3-1-5-11(6-2-4-10)7-8(12)13/h1-2,5-7H2,(H,12,13)",KIGQVWWOESIMBG-UHFFFAOYSA-N,OC(=O)CN(CCC#N)CCC#N,0.4578,0.0,1,G1
B-2227,"5-quinoxalinamine, 6,7-dimethoxy-","InChI=1S/C10H11N3O2/c1-14-7-5-6-9(13-4-3-12-6)8(11)10(7)15-2/h3-5H,11H2,1-2H3",ASEJLJNYULOOOK-UHFFFAOYSA-N,COc1cc2nccnc2c(N)c1OC,-1.7102,0.0,1,G1
B-2228,"urea, 1-methyl-1-p-tolyl-","InChI=1S/C9H12N2O/c1-7-3-5-8(6-4-7)11(2)9(10)12/h3-6H,1-2H3,(H2,10,12)",JPJWFNHMOPQSBQ-UHFFFAOYSA-N,CN(C(N)=O)c1ccc(C)cc1,-0.423,0.0,1,G1
B-2230,"benzamide, 4-(aminosulfonyl)-","InChI=1S/C7H8N2O3S/c8-7(10)5-1-3-6(4-2-5)13(9,11)12/h1-4H,(H2,8,10)(H2,9,11,12)",MWFFIRCXGDGFQB-UHFFFAOYSA-N,NC(=O)c1ccc(cc1)[S](N)(=O)=O,-2.3015,0.0,1,G1
B-2231,"2,4(1h,3h)-pyrimidinedione, 5-methyl-1-(phenylme","InChI=1S/C12H12N2O2/c1-9-7-14(12(16)13-11(9)15)8-10-5-3-2-4-6-10/h2-7H,8H2,1H3,(H,13,15,16)",YNHQGNHVHHZPTA-UHFFFAOYSA-N,CC1=CN(Cc2ccccc2)C(=O)NC1=O,-2.2558,0.0,1,G1
B-2232,"1h-imidazole-4-sulfonic acid, 5-methyl-","InChI=1S/C4H6N2O3S/c1-3-4(6-2-5-3)10(7,8)9/h2H,1H3,(H,5,6)(H,7,8,9)",KGDKWOYOXAFWLV-UHFFFAOYSA-N,Cc1[nH]cnc1[S](O)(=O)=O,0.188,0.0,1,G1
B-2233,"2,3-quinoxalinedione, 1,4-dihydro-6-methyl-","InChI=1S/C9H8N2O2/c1-5-2-3-6-7(4-5)11-9(13)8(12)10-6/h2-4H,1H3,(H,10,12)(H,11,13)",HOHZZPCLZWZMOM-UHFFFAOYSA-N,Cc1ccc2NC(=O)C(=O)Nc2c1,-3.0418,0.0,1,G1
B-2234,"benzoic acid, 4-bromo-3-nitro-","InChI=1S/C7H4BrNO4/c8-5-2-1-4(7(10)11)3-6(5)9(12)13/h1-3H,(H,10,11)",RVCTZJVBWNFYRU-UHFFFAOYSA-N,OC(=O)c1ccc(Br)c(c1)[N+]([O-])=O,-2.9677,0.0,1,G1
B-2235,"9-acridinol, 9,10-dihydro-10-methyl-9-phenyl-","InChI=1S/C20H17NO/c1-21-18-13-7-5-11-16(18)20(22,15-9-3-2-4-10-15)17-12-6-8-14-19(17)21/h2-14,22H,1H3",MILNADFLMJQLHM-UHFFFAOYSA-N,CN1c2ccccc2C(O)(c3ccccc3)c4ccccc14,-3.9031,0.0,1,G1
B-2236,"2-cyclohexene-1,2-dicarboxylic acid, 1-methyl-","InChI=1S/C9H12O4/c1-9(8(12)13)5-3-2-4-6(9)7(10)11/h4H,2-3,5H2,1H3,(H,10,11)(H,12,13)",PCVSTKYNEXPKMI-UHFFFAOYSA-N,CC1(CCCC=C1C(O)=O)C(O)=O,-1.9642,0.0,1,G1
B-2237,"dl-aspartic acid, n,n-bis(2-cyanoethyl)-","InChI=1S/C10H13N3O4/c11-3-1-5-13(6-2-4-12)8(10(16)17)7-9(14)15/h8H,1-2,5-7H2,(H,14,15)(H,16,17)",GNVTYGNEZLLRIK-UHFFFAOYSA-N,OC(=O)CC(N(CCC#N)CCC#N)C(O)=O,-1.5337,0.0,1,G1
B-2238,"1,2-benzenedicarboxamide, n,n,n',n'-tetramethyl-","InChI=1S/C12H16N2O2/c1-13(2)11(15)9-7-5-6-8-10(9)12(16)14(3)4/h5-8H,1-4H3",ZUMRZCLVLLRVIF-UHFFFAOYSA-N,CN(C)C(=O)c1ccccc1C(=O)N(C)C,0.5083,0.0,1,G1
B-2239,"acetic acid, [2-methoxy-4-(2-propenyl)phenoxy]-","InChI=1S/C12H14O4/c1-3-4-9-5-6-10(11(7-9)15-2)16-8-12(13)14/h3,5-7H,1,4,8H2,2H3,(H,13,14)/p-1",FQBPCNCFOCPCJP-UHFFFAOYSA-M,COc1cc(CC=C)ccc1OCC([O-])=O,-2.2786,0.0,1,G1
B-2241,amyl lactate,"InChI=1S/C8H16O3/c1-3-4-5-6-11-8(10)7(2)9/h7,9H,3-6H2,1-2H3",GXOHBWLPQHTYPF-UHFFFAOYSA-N,CCCCCOC(=O)C(C)O,-1.2047,0.0,1,G1
B-2242,cloxyfonac,"InChI=1S/C9H9ClO4/c10-7-1-2-8(6(3-7)4-11)14-5-9(12)13/h1-3,11H,4-5H2,(H,12,13)",ZJRUTGDCLVIVRD-UHFFFAOYSA-N,OCc1cc(Cl)ccc1OCC(O)=O,-2.0347,0.0,1,G1
B-2243,allyxycarb [bsi:iso],"InChI=1S/C16H22N2O2/c1-6-8-18(9-7-2)15-12(3)10-14(11-13(15)4)20-16(19)17-5/h6-7,10-11H,1-2,8-9H2,3-5H3,(H,17,19)",FBEHFRAORPEGFH-UHFFFAOYSA-N,CNC(=O)Oc1cc(C)c(N(CC=C)CC=C)c(C)c1,-3.5932,0.0,1,G1
B-2244,3-chlorodiphenyl ether,InChI=1S/C12H9ClO/c13-10-5-4-8-12(9-10)14-11-6-2-1-3-7-11/h1-9H,BMURONZFJJPAOK-UHFFFAOYSA-N,Clc1cccc(Oc2ccccc2)c1,-4.2107,0.0,1,G1
B-2245,(r)-(-)-carvone,"InChI=1S/C10H14O/c1-7(2)9-5-4-8(3)10(11)6-9/h4,9H,1,5-6H2,2-3H3/t9-/m1/s1",ULDHMXUKGWMISQ-SECBINFHSA-N,CC(=C)[C@@H]1CC=C(C)C(=O)C1,-2.0608,0.0,1,G1
B-2246,"salicylanilide, 4'-chloro-5-nitro-","InChI=1S/C13H9ClN2O4/c14-8-1-3-9(4-2-8)15-13(18)11-7-10(16(19)20)5-6-12(11)17/h1-7,17H,(H,15,18)",CDYKTFABNOULII-UHFFFAOYSA-N,Oc1ccc(cc1C(=O)Nc2ccc(Cl)cc2)[N+]([O-])=O,-5.122000000000001,0.0,1,G1
B-2247,"salicylanilide, 4'-chloro-3-nitro-","InChI=1S/C13H9ClN2O4/c14-8-4-6-9(7-5-8)15-13(18)10-2-1-3-11(12(10)17)16(19)20/h1-7,17H,(H,15,18)",UOHLBUBEMXVTMQ-UHFFFAOYSA-N,Oc1c(cccc1[N+]([O-])=O)C(=O)Nc2ccc(Cl)cc2,-4.5452,0.0,1,G1
B-2248,"alanine, n-(2-bromo-3-methylbutyryl)-, dl-","InChI=1S/C8H14BrNO3/c1-4(2)6(9)7(11)10-5(3)8(12)13/h4-6H,1-3H3,(H,10,11)(H,12,13)",AXXGBXUAFMEEMQ-UHFFFAOYSA-N,CC(C)C(Br)C(=O)NC(C)C(O)=O,-0.4825,0.0,1,G1
B-2250,"benzoic acid, 4-hydroxy-, pentyl ester","InChI=1S/C12H16O3/c1-2-3-4-9-15-12(14)10-5-7-11(13)8-6-10/h5-8,13H,2-4,9H2,1H3",ZNSSPLQZSUWFJT-UHFFFAOYSA-N,CCCCCOC(=O)c1ccc(O)cc1,-3.8135,0.0,1,G1
B-2251,norgestrel,"InChI=1S/C21H28O2/c1-3-20-11-9-17-16-8-6-15(22)13-14(16)5-7-18(17)19(20)10-12-21(20,23)4-2/h2,13,16-19,23H,3,5-12H2,1H3/t16-,17+,18+,19-,20-,21-/m0/s1",WWYNJERNGUHSAO-XUDSTZEESA-N,CC[C@]12CC[C@H]3[C@@H](CCC4=CC(=O)CC[C@H]34)[C@@H]1CC[C@@]2(O)C#C,-5.2567,0.0,1,G1
B-2252,"1,3-benzodioxole-5-acetaldehyde","InChI=1S/C9H8O3/c10-4-3-7-1-2-8-9(5-7)12-6-11-8/h1-2,4-5H,3,6H2",RRMZTAWQQFJQHL-UHFFFAOYSA-N,O=CCc1ccc2OCOc2c1,-1.96,0.0,1,G1
B-2253,"4-oxo-1,2,3,4-tetrahydro-<2>naphthoic acid","InChI=1S/C11H10O3/c12-10-6-8(11(13)14)5-7-3-1-2-4-9(7)10/h1-4,8H,5-6H2,(H,13,14)",UYNMKOITXUEVCZ-UHFFFAOYSA-N,OC(=O)C1CC(=O)c2ccccc2C1,-2.1031,0.0,1,G1
B-2255,"l-serine, n-l-seryl-","InChI=1S/C6H12N2O5/c7-3(1-9)5(11)8-4(2-10)6(12)13/h3-4,9-10H,1-2,7H2,(H,8,11)(H,12,13)",XZKQVQKUZMAADP-UHFFFAOYSA-N,NC(CO)C(=O)NC(CO)C(O)=O,-0.5847,0.0,1,G1
B-2256,"1,2-cyclopentanedione, dioxime","InChI=1S/C5H8N2O2/c8-6-4-2-1-3-5(4)7-9/h6,8H,1-3H2",QHWNFVBTROFACM-UHFFFAOYSA-N,ONC1=C(CCC1)N=O,-1.9937,0.0,1,G1
B-2257,"2-pyrrolidinone, 5-methyl-1-phenyl-","InChI=1S/C11H13NO/c1-9-7-8-11(13)12(9)10-5-3-2-4-6-10/h2-6,9H,7-8H2,1H3",VKSABXHARNALNR-UHFFFAOYSA-N,CC1CCC(=O)N1c2ccccc2,-0.8457,0.0,1,G1
B-2258,"di-tert-butylperoxy-3,3,5-trimethylcyclohexane p","InChI=1S/C17H34O4/c1-13-10-16(8,9)12-17(11-13,20-18-14(2,3)4)21-19-15(5,6)7/h13H,10-12H2,1-9H3",NALFRYPTRXKZPN-UHFFFAOYSA-N,CC1CC(C)(C)CC(C1)(OOC(C)(C)C)OOC(C)(C)C,-5.7025,0.0,1,G1
B-2259,"1,2-benzenedicarboxylic acid, 3-nitro-, 2-methyl","InChI=1S/C9H7NO6/c1-16-9(13)7-5(8(11)12)3-2-4-6(7)10(14)15/h2-4H,1H3,(H,11,12)",UTEQVEMDYYOJGM-UHFFFAOYSA-N,COC(=O)c1c(cccc1[N+]([O-])=O)C(O)=O,-2.0853,0.0,1,G1
B-2260,"phthalic acid, 3-nitro-, 2-propyl ester","InChI=1S/C11H11NO6/c1-6(2)18-11(15)7-4-3-5-8(12(16)17)9(7)10(13)14/h3-6H,1-2H3,(H,13,14)/p-1",UWMQVYAFMSNSPZ-UHFFFAOYSA-M,CC(C)OC(=O)c1cccc(c1C([O-])=O)[N+]([O-])=O,-2.3466,0.0,1,G1
B-2261,"phthalic acid, 3-nitro-, 2-isopropyl ester","InChI=1S/C11H11NO6/c1-6(2)18-11(15)9-7(10(13)14)4-3-5-8(9)12(16)17/h3-6H,1-2H3,(H,13,14)/p-1",VLYOOXLMUKHFNY-UHFFFAOYSA-M,CC(C)OC(=O)c1c(cccc1[N+]([O-])=O)C([O-])=O,-2.4897,0.0,1,G1
B-2262,"phthalic acid, 3-nitro-, 2-isobutyl ester","InChI=1S/C12H13NO6/c1-12(2,3)19-11(16)7-5-4-6-8(13(17)18)9(7)10(14)15/h4-6H,1-3H3,(H,14,15)/p-1",ITMRQGQCULJEJR-UHFFFAOYSA-M,CC(C)(C)OC(=O)c1cccc(c1C([O-])=O)[N+]([O-])=O,-3.0467,0.0,1,G1
B-2263,"phthalic acid, 3-nitro-, isopentyl ester","InChI=1S/C13H15NO6/c1-8(2)6-7-20-13(17)9-4-3-5-10(14(18)19)11(9)12(15)16/h3-5,8H,6-7H2,1-2H3,(H,15,16)/p-1",WDTZUHJWPOQOFX-UHFFFAOYSA-M,CC(C)CCOC(=O)c1cccc(c1C([O-])=O)[N+]([O-])=O,-3.0689,0.0,1,G1
B-2264,"phosphinic acid, mesityl-","InChI=1S/C9H13O2P/c1-6-4-7(2)9(12(10)11)8(3)5-6/h4-5,12H,1-3H3,(H,10,11)",URXMWXKQTQWZQB-UHFFFAOYSA-N,Cc1cc(C)c(c(C)c1)[PH](O)=O,-2.7896,0.0,1,G1
B-2266,"1,3-propanediol, 2-(2-propenyloxy)-","InChI=1S/C6H12O3/c1-2-3-9-6(4-7)5-8/h2,6-8H,1,3-5H2",IGDCJKDZZUALAO-UHFFFAOYSA-N,OCC(CO)OCC=C,0.48100000000000004,0.0,1,G1
B-2267,"guanidine, n-methyl-n,n'-dinitro-","InChI=1S/C2H5N5O4/c1-5(7(10)11)2(3)4-6(8)9/h1H3,(H2,3,4)",SRKQWNFPTBNUKE-UHFFFAOYSA-N,CN(C(/N)=N/[N+]([O-])=O)[N+]([O-])=O,-0.6104,0.0,1,G1
B-2268,"phthalic acid, 3-nitro-, 2-butyl ester","InChI=1S/C12H13NO6/c1-3-7(2)19-12(16)8-5-4-6-9(13(17)18)10(8)11(14)15/h4-7H,3H2,1-2H3,(H,14,15)/p-1",FMPUSJAPIITOEY-UHFFFAOYSA-M,CCC(C)OC(=O)c1cccc(c1C([O-])=O)[N+]([O-])=O,-2.7193,0.0,1,G1
B-2269,"3,4'-dichlorodiphenyl ether",InChI=1S/C12H8Cl2O/c13-9-4-6-11(7-5-9)15-12-3-1-2-10(14)8-12/h1-8H,HPRGYUWRGCTBAV-UHFFFAOYSA-N,Clc1ccc(Oc2cccc(Cl)c2)cc1,-4.7701,0.0,1,G1
B-2272,serine,"InChI=1S/C3H7NO3/c4-2(1-5)3(6)7/h2,5H,1,4H2,(H,6,7)/t2-/m0/s1",MTCFGRXMJLQNBG-REOHCLBHSA-N,N[C@@H](CO)C(O)=O,-0.3861,0.0,1,G1
B-2273,glutamic acid,"InChI=1S/C5H9NO4/c6-3(5(9)10)1-2-4(7)8/h3H,1-2,6H2,(H,7,8)(H,9,10)",WHUUTDBJXJRKMK-UHFFFAOYSA-N,NC(CCC(O)=O)C(O)=O,-0.9916,0.1582593816334438,4,G5
B-2275,"acetamide, n,n'-(phenylmethylene)bis-","InChI=1S/C11H14N2O2/c1-8(14)12-11(13-9(2)15)10-6-4-3-5-7-10/h3-7,11H,1-2H3,(H,12,14)(H,13,15)",JFUUKHUKGAQKIW-UHFFFAOYSA-N,CC(=O)NC(NC(C)=O)c1ccccc1,-1.3144,0.0,1,G1
B-2278,"benzene, 1,2,4,5-tetrachloro-3-methoxy-","InChI=1S/C7H4Cl4O/c1-12-7-5(10)3(8)2-4(9)6(7)11/h2H,1H3",WMMFIDNWZNCBCT-UHFFFAOYSA-N,COc1c(Cl)c(Cl)cc(Cl)c1Cl,-5.1307,0.0,1,G1
B-2279,"d-galactose, (aminocarbonyl)hydrazone","InChI=1S/C7H15N3O6/c8-7(16)10-9-1-3(12)5(14)6(15)4(13)2-11/h1,3-6,11-15H,2H2,(H3,8,10,16)/b9-1+",NOUQGOYNEGWDCZ-XLUWADSXSA-N,NC(=O)N\N=C\C(O)C(O)C(O)C(O)CO,-0.4257,0.0,1,G1
B-2280,"nicotinic acid, butyl ester","InChI=1S/C10H13NO2/c1-2-3-7-13-10(12)9-5-4-6-11-8-9/h4-6,8H,2-3,7H2,1H3",DQULIMIQTCDUAN-UHFFFAOYSA-N,CCCCOC(=O)c1cccnc1,-1.8367,0.0,1,G1
B-2281,"1,3-propanediol, monobenzoate","InChI=1S/C10H12O3/c11-7-4-8-13-10(12)9-5-2-1-3-6-9/h1-3,5-6,11H,4,7-8H2",BZISNWGGPWSXTK-UHFFFAOYSA-N,OCCCOC(=O)c1ccccc1,-1.2558,0.0,1,G1
B-2285,4-chlorophenyl phenyl ether,InChI=1S/C12H9ClO/c13-10-6-8-12(9-7-10)14-11-4-2-1-3-5-11/h1-9H,PGPNJCAMHOJTEF-UHFFFAOYSA-N,Clc1ccc(Oc2ccccc2)cc1,-4.7925,0.0,1,G1
B-2288,mcpp,"InChI=1S/C10H11ClO3/c1-6-5-8(11)3-4-9(6)14-7(2)10(12)13/h3-5,7H,1-2H3,(H,12,13)",WNTGYJSOUMFZEP-UHFFFAOYSA-N,CC(Oc1ccc(Cl)cc1C)C(O)=O,-2.4659999999999997,0.060561435749163055,4,G5
B-2289,"phosphinic acid, dibutyl-, ethyl ester","InChI=1S/C10H23O2P/c1-4-7-9-13(11,12-6-3)10-8-5-2/h4-10H2,1-3H3",ODVIGXMRBJCIPC-UHFFFAOYSA-N,CCCC[P](=O)(CCCC)OCC,-1.2005,0.0,1,G1
B-2291,"4-picoline, 2-chloro-6-methoxy-alpha,alpha,alpha","InChI=1S/C7H5Cl4NO/c1-13-6-3-4(7(9,10)11)2-5(8)12-6/h2-3H,1H3",RPCKKUFLSMORHB-UHFFFAOYSA-N,COc1cc(cc(Cl)n1)C(Cl)(Cl)Cl,-4.3635,0.0,1,G1
B-2292,"acetamide, n-acetyl-n-(4-ethoxyphenyl)-","InChI=1S/C12H15NO3/c1-4-16-12-7-5-11(6-8-12)13(9(2)14)10(3)15/h5-8H,4H2,1-3H3",QGKJDERCEAREGO-UHFFFAOYSA-N,CCOc1ccc(cc1)N(C(C)=O)C(C)=O,-1.9469999999999998,0.0,1,G1
B-2293,"phosphoric acid, dibutyl ethyl ester","InChI=1S/C10H23O4P/c1-4-7-9-13-15(11,12-6-3)14-10-8-5-2/h4-10H2,1-3H3",NAIBHQRYLPOHGG-UHFFFAOYSA-N,CCCCO[P](=O)(OCC)OCCCC,-1.8456,0.0,1,G1
B-2294,"phosphoric acid, dibutyl methyl ester","InChI=1S/C9H21O4P/c1-4-6-8-12-14(10,11-3)13-9-7-5-2/h4-9H2,1-3H3",LPRHLAXCXZTKNI-UHFFFAOYSA-N,CCCCO[P](=O)(OC)OCCCC,-1.4995,0.0,1,G1
B-2295,5-quinolinecarboxylic acid,"InChI=1S/C10H7NO2/c12-10(13)8-3-1-5-9-7(8)4-2-6-11-9/h1-6H,(H,12,13)",RAYMXZBXQCGRGX-UHFFFAOYSA-N,OC(=O)c1cccc2ncccc12,-2.6774,0.0,1,G1
B-2298,"butanediamide, n,n,n',n'-tetramethyl-","InChI=1S/C8H16N2O2/c1-9(2)7(11)5-6-8(12)10(3)4/h5-6H2,1-4H3",RCWUFNWXCIKHPC-UHFFFAOYSA-N,CN(C)C(=O)CCC(=O)N(C)C,0.5035,0.0,1,G1
B-2299,"propanoic acid, 3,3'-diselenobis-","InChI=1S/C6H10O4Se2/c7-5(8)1-3-11-12-4-2-6(9)10/h1-4H2,(H,7,8)(H,9,10)",AXJLEYVRLPNPGF-UHFFFAOYSA-N,OC(=O)CC[Se][Se]CCC(O)=O,-2.2681,0.0,1,G1
B-2300,"2,5-piperazinedione, 1,4-bis(hydroxymethyl)-","InChI=1S/C6H10N2O4/c9-3-7-1-5(11)8(4-10)2-6(7)12/h9-10H,1-4H2",YJJCHWPBSSONRM-UHFFFAOYSA-N,OCN1CC(=O)N(CO)CC1=O,-0.4168,0.0,1,G1
B-2302,"phosphonic acid, 4-morpholinyl-, diphenyl ester","InChI=1S/C16H18NO4P/c18-22(17-11-13-19-14-12-17,20-15-7-3-1-4-8-15)21-16-9-5-2-6-10-16/h1-10H,11-14H2",YHQZCZRZUDDZTA-UHFFFAOYSA-N,O=[P](Oc1ccccc1)(Oc2ccccc2)N3CCOCC3,-2.1425,0.0,1,G1
B-2303,n-methyl-n-nitrosoacetamide,InChI=1S/C3H6N2O2/c1-3(6)5(2)4-7/h1-2H3,FFLFWNRFMZRFKU-UHFFFAOYSA-N,CN(N=O)C(C)=O,-0.7684,0.0,1,G1
B-2304,endrin aldehyde,"InChI=1S/C12H8Cl6O/c13-8-5-3(2-19)1-4-6(5)9(14,12(8,17)18)11(16)7(4)10(8,11)15/h2-7H,1H2",HCTWZIFNBBCVGM-UHFFFAOYSA-N,ClC1(Cl)C2(Cl)C3C(CC4C3C1(Cl)C5(Cl)C4C25Cl)C=O,-7.2006,0.0,1,G1
B-2305,sulfur dioxide,InChI=1S/O2S/c1-3-2,RAHZWNYVWXNFOC-UHFFFAOYSA-N,O=[S]=O,0.2235,0.0,1,G1
B-2306,"benzenamine, n-ethyl-2,4,6-trinitro-","InChI=1S/C8H8N4O6/c1-2-9-8-6(11(15)16)3-5(10(13)14)4-7(8)12(17)18/h3-4,9H,2H2,1H3",JRLUWLIIVKSPPT-UHFFFAOYSA-N,CCNc1c(cc(cc1[N+]([O-])=O)[N+]([O-])=O)[N+]([O-])=O,-3.4085,0.0,1,G1
B-2307,"4-benzothiazolol, 2-amino-","InChI=1S/C7H6N2OS/c8-7-9-6-4(10)2-1-3-5(6)11-7/h1-3,10H,(H2,8,9)",PFQJPSASUCHKRO-UHFFFAOYSA-N,Nc1sc2cccc(O)c2n1,-1.9196,0.0,1,G1
B-2308,"3-furancarboxylic acid, tetrahydro-3-methyl-2-ox","InChI=1S/C6H8O4/c1-6(4(7)8)2-3-10-5(6)9/h2-3H2,1H3,(H,7,8)",OCGGZLKMMJSXBM-UHFFFAOYSA-N,CC1(CCOC1=O)C(O)=O,0.8412,0.0,1,G1
B-2309,"1,2-anthracenedicarboxylic acid, 9,10-dihydro-9,","InChI=1S/C16H8O6/c17-13-7-3-1-2-4-8(7)14(18)11-9(13)5-6-10(15(19)20)12(11)16(21)22/h1-6H,(H,19,20)(H,21,22)",QQPQYWGNVMIGAF-UHFFFAOYSA-N,OC(=O)c1ccc2C(=O)c3ccccc3C(=O)c2c1C(O)=O,-2.8141,0.0,1,G1
B-2310,"cytidine, 2',3'-dideoxy-","InChI=1S/C9H13N3O3/c10-7-3-4-12(9(14)11-7)8-2-1-6(5-13)15-8/h3-4,6,8,13H,1-2,5H2,(H2,10,11,14)/t6-,8+/m0/s1",WREGKURFCTUGRC-POYBYMJQSA-N,NC1=NC(=O)N(C=C1)[C@H]2CC[C@@H](CO)O2,-0.4416,0.0,1,G1
B-2311,"1,4-dioxane, 2,5-dimethoxy-2,5-dimethyl-","InChI=1S/C8H16O4/c1-7(9-3)5-12-8(2,10-4)6-11-7/h5-6H2,1-4H3",UUGSNNUEVKTATH-UHFFFAOYSA-N,COC1(C)COC(C)(CO1)OC,-1.246,0.0,1,G1
B-2312,"acetic acid, [2-methoxy-4-(1-propenyl)phenoxy]-","InChI=1S/C12H14O4/c1-3-4-9-5-6-10(11(7-9)15-2)16-8-12(13)14/h3-7H,8H2,1-2H3,(H,13,14)/p-1/b4-3+",UORQJKKOBXSGRG-ONEGZZNKSA-M,COc1cc(\C=C\C)ccc1OCC([O-])=O,-1.5826,0.0,1,G1
B-2313,azacyclotetradecan-2-one,"InChI=1S/C13H25NO/c15-13-11-9-7-5-3-1-2-4-6-8-10-12-14-13/h1-12H2,(H,14,15)",OETISESXIXCPAD-UHFFFAOYSA-N,O=C1CCCCCCCCCCCCN1,-2.6260000000000003,0.0,1,G1
B-2314,"benzenemethanol, 3,4,5-trichloro-","InChI=1S/C7H5Cl3O/c8-5-1-4(3-11)2-6(9)7(5)10/h1-2,11H,3H2",HZKGTRUEBFRMNO-UHFFFAOYSA-N,OCc1cc(Cl)c(Cl)c(Cl)c1,-3.0948,0.0,1,G1
B-2315,iodine,InChI=1S/I2/c1-2,PNDPGZBMCMUPRI-UHFFFAOYSA-N,II,-2.886,0.0,1,G1
B-2316,8-quinazolinol,"InChI=1S/C8H6N2O/c11-7-3-1-2-6-4-9-5-10-8(6)7/h1-5,11H",LNNRQIKKDKDFRV-UHFFFAOYSA-N,Oc1cccc2cncnc12,-2.0361,0.0,1,G1
B-2317,butane-1-thiosulfinic acid s-butyl ester,"InChI=1S/C8H18OS2/c1-3-5-7-10-11(9)8-6-4-2/h3-8H2,1-2H3",XSHPYKKTJQSNFE-UHFFFAOYSA-N,CCCCS[S](=O)CCCC,-2.2886,0.0,1,G1
B-2320,"2-furancarboxamide, n-hydroxy-n-phenyl-","InChI=1S/C11H9NO3/c13-11(10-7-4-8-15-10)12(14)9-5-2-1-3-6-9/h1-8,14H",CCTHSALYFOIKCZ-UHFFFAOYSA-N,ON(C(=O)c1occc1)c2ccccc2,-3.194,0.0,1,G1
B-2321,hydrogen fluoride,InChI=1S/FH/h1H,KRHYYFGTRYWZRS-UHFFFAOYSA-N,[H+].[F-],1.6988,0.0,1,G1
B-2322,sulfuric acid,"InChI=1S/H2O4S/c1-5(2,3)4/h(H2,1,2,3,4)",QAOWNCQODCNURD-UHFFFAOYSA-N,O[S](O)(=O)=O,1.0084,0.0,1,G1
B-2323,"nicotinic acid, propyl ester","InChI=1S/C9H11NO2/c1-2-6-12-9(11)8-4-3-5-10-7-8/h3-5,7H,2,6H2,1H3",CLAOCVVWIKGTOP-UHFFFAOYSA-N,CCCOC(=O)c1cccnc1,-1.2403,0.0,1,G1
B-2325,"dl-norleucine, n-acetyl-","InChI=1S/C8H15NO3/c1-3-4-5-7(8(11)12)9-6(2)10/h7H,3-5H2,1-2H3,(H,9,10)(H,11,12)",JDMCEGLQFSOMQH-UHFFFAOYSA-N,CCCCC(NC(C)=O)C(O)=O,-0.6823,0.169,2,G3
B-2328,"1-naphthalenecarboxylic acid, 2-chloro-","InChI=1S/C11H7ClO2/c12-9-6-5-7-3-1-2-4-8(7)10(9)11(13)14/h1-6H,(H,13,14)",HUNGHFUNVZTRKO-UHFFFAOYSA-N,OC(=O)c1c(Cl)ccc2ccccc12,-2.3152,0.0,1,G1
B-2330,tetrasodium pyrophosphate,"InChI=1S/4Na.H4O7P2/c;;;;1-8(2,3)7-9(4,5)6/h;;;;(H2,1,2,3)(H2,4,5,6)/q4*+1;/p-4",FQENQNTWSFEDLI-UHFFFAOYSA-J,[Na+].[Na+].[Na+].[Na+].[O-][P]([O-])(=O)O[P]([O-])([O-])=O,-0.5141,0.0,1,G1
B-2331,nitrogen,InChI=1S/N2/c1-2,IJGRMHOSHXDMSA-UHFFFAOYSA-N,N#N,-0.1901,0.0,1,G1
B-2332,copper sulfate pentahydrate,"InChI=1S/Cu.H2O4S.5H2O/c;1-5(2,3)4;;;;;/h;(H2,1,2,3,4);5*1H2/q+2;;;;;;/p-2",JZCCFEFSEZPSOG-UHFFFAOYSA-L,O.O.O.O.O.[Cu++].[O-][S]([O-])(=O)=O,-0.8922,0.0,1,G1
B-2333,arsenic acid,"InChI=1S/AsH3O4/c2-1(3,4)5/h(H3,2,3,4,5)",DJHGAFSJWGLOIV-UHFFFAOYSA-N,O[As](O)(O)=O,0.6187,0.0,1,G1
B-2334,oxygen,InChI=1S/O2/c1-2,MYMOFIZGZYHOMD-UHFFFAOYSA-N,O=O,0.0691,0.0,1,G1
B-2335,chlorine,InChI=1S/Cl2/c1-2,KZBUYRJDOAKODT-UHFFFAOYSA-N,ClCl,-1.0513,0.0,1,G1
B-2336,hydrogen sulfide,InChI=1S/H2S/h1H2,RWSOTUBLDIXVET-UHFFFAOYSA-N,S,-0.9596,0.0,1,G1
B-2337,mevinphos,"InChI=1S/C7H13O6P/c1-6(5-7(8)10-2)13-14(9,11-3)12-4/h5H,1-4H3/b6-5+",GEPDYQSQVLXLEU-AATRIKPKSA-N,COC(=O)\C=C(/C)O[P](=O)(OC)OC,0.4276,0.11095,2,G3
B-2338,"1,1,1-trichloropropane","InChI=1S/C3H5Cl3/c1-2-3(4,5)6/h2H2,1H3",AVGQTJUPLKNPQP-UHFFFAOYSA-N,CCC(Cl)(Cl)Cl,-1.8898,0.0,1,G1
B-2340,demeton,"InChI=1S/2C8H19O3PS2/c1-4-10-12(9,11-5-2)14-8-7-13-6-3;1-4-9-12(13,10-5-2)11-7-8-14-6-3/h2*4-8H2,1-3H3",FAXIJTUDSBIMHY-UHFFFAOYSA-N,CCO[P](=O)(OCC)SCCSCC.CCO[P](=S)(OCC)OCCSCC,-3.9351,0.0,1,G1
B-2341,bufencarb,"InChI=1S/2C13H19NO2/c1-4-6-10(2)11-7-5-8-12(9-11)16-13(15)14-3;1-4-10(5-2)11-7-6-8-12(9-11)16-13(15)14-3/h5,7-10H,4,6H2,1-3H3,(H,14,15);6-10H,4-5H2,1-3H3,(H,14,15)",MYTVVMGUDBRCDJ-UHFFFAOYSA-N,CCCC(C)c1cccc(OC(=O)NC)c1.CCC(CC)c2cccc(OC(=O)NC)c2,-3.947,0.0,1,G1
B-2342,"ethanol, 2-(octyloxy)-","InChI=1S/C10H22O2/c1-2-3-4-5-6-7-9-12-10-8-11/h11H,2-10H2,1H3",ZQCIMPBZCZUDJM-UHFFFAOYSA-N,CCCCCCCCOCCO,-2.125,0.0,1,G1
B-2343,"butanenitrile, 2-hydroxy-3-methyl-, (r)-","InChI=1S/C5H9NO/c1-4(2)5(7)3-6/h4-5,7H,1-2H3/t5-/m0/s1",YRBPUNHOIVAUFA-YFKPBYRVSA-N,CC(C)[C@@H](O)C#N,0.3048,0.0,1,G1
B-2344,"1-butanol, 2-ethyl-, acetate","InChI=1S/C8H16O2/c1-4-8(5-2)6-10-7(3)9/h8H,4-6H2,1-3H3",HQLKZWRSOHTERR-UHFFFAOYSA-N,CCC(CC)COC(C)=O,-1.3528,0.0,1,G1
B-2345,"1,3-dichloropropene, (z)","InChI=1S/C3H4Cl2/c4-2-1-3-5/h1-2H,3H2/b2-1-",UOORRWUZONOOLO-UPHRSURJSA-N,ClC\C=C/Cl,-1.7067,0.1903422589851122,3,G5
B-2346,"1,3-dichloropropene (trans)","InChI=1S/C3H4Cl2/c4-2-1-3-5/h1-2H,3H2/b2-1+",UOORRWUZONOOLO-OWOJBTEDSA-N,ClC/C=C/Cl,-1.598,0.0,1,G1
B-2347,"1,1-cyclopropanedicarboxylic acid, 2-methyl-","InChI=1S/C6H8O4/c1-3-2-6(3,4(7)8)5(9)10/h3H,2H2,1H3,(H,7,8)(H,9,10)",SPAYAPLBTKGPME-UHFFFAOYSA-N,CC1CC1(C(O)=O)C(O)=O,0.8412,0.0,1,G1
B-2348,"butanedioic acid, 2,2-diphenyl-","InChI=1S/C16H14O4/c17-14(18)11-16(15(19)20,12-7-3-1-4-8-12)13-9-5-2-6-10-13/h1-10H,11H2,(H,17,18)(H,19,20)",LVVXLDUCGFTWHJ-UHFFFAOYSA-N,OC(=O)CC(C(O)=O)(c1ccccc1)c2ccccc2,-2.4318,0.0,1,G1
B-2349,"2,2-dibromo-2-cyanoacetamide","InChI=1S/C3H2Br2N2O/c4-3(5,1-6)2(7)8/h(H2,7,8)",UUIVKBHZENILKB-UHFFFAOYSA-N,NC(=O)C(Br)(Br)C#N,-1.2075,0.0,1,G1
B-2353,n-isobutylmorpholine,"InChI=1S/C8H17NO/c1-8(2)7-9-3-5-10-6-4-9/h8H,3-7H2,1-2H3",QKVSMSABRNCNRS-UHFFFAOYSA-N,CC(C)CN1CCOCC1,-0.7089,0.0,1,G1
B-2354,"l-tyrosine, n-acetyl-3,5-dibromo-","InChI=1S/C11H11Br2NO4/c1-5(15)14-9(11(17)18)4-6-2-7(12)10(16)8(13)3-6/h2-3,9,16H,4H2,1H3,(H,14,15)(H,17,18)/t9-/m0/s1",FNGNLZLLBCYMOG-VIFPVBQESA-N,CC(=O)N[C@@H](Cc1cc(Br)c(O)c(Br)c1)C(O)=O,-2.1830000000000003,0.0,1,G1
B-2355,6-quinolinecarboxylic acid,"InChI=1S/C10H7NO2/c12-10(13)8-3-4-9-7(6-8)2-1-5-11-9/h1-6H,(H,12,13)",VXGYRCVTBHVXMZ-UHFFFAOYSA-N,OC(=O)c1ccc2ncccc2c1,-0.0456,0.0,1,G1