ID,Name,InChI,InChIKey,SMILES,Solubility,SD,Occurrences,Group
C-1441,"2,3,3',4,4',5-hexachlorodiphenyl  ether",InChI=1S/C12H4Cl6O/c13-6-2-1-5(3-7(6)14)19-9-4-8(15)10(16)12(18)11(9)17/h1-4H,GHTWMHLFFDEYRE-UHFFFAOYSA-N,ClC1=CC=C(OC2=C(Cl)C(=C(Cl)C(=C2)Cl)Cl)C=C1Cl,-8.78,0.0,1,G1
C-1442,"2,2',4,4',5,5'-hexachlorodiphenyl  ether",InChI=1S/C12H4Cl6O/c13-5-1-9(17)11(3-7(5)15)19-12-4-8(16)6(14)2-10(12)18/h1-4H,PECXRRMHOQBOIE-UHFFFAOYSA-N,ClC1=CC(=C(OC2=CC(=C(Cl)C=C2Cl)Cl)C=C1Cl)Cl,-8.36,0.0,1,G1
C-1443,benorilate;  2-(acetyloxy)benzoic acid 4-(acetylamino)phenyl ester,"InChI=1S/C17H15NO5/c1-11(19)18-13-7-9-14(10-8-13)23-17(21)15-5-3-4-6-16(15)22-12(2)20/h3-10H,1-2H3,(H,18,19)",FEJKLNWAOXSSNR-UHFFFAOYSA-N,CC(=O)NC1=CC=C(OC(=O)C2=CC=CC=C2OC(C)=O)C=C1,-4.19,0.0,1,G1
C-1444,"1,5-bis(pivaloyloxymethyl)allopurinol","InChI=1S/C17H24N4O5/c1-16(2,3)14(23)25-9-20-8-18-12-11(13(20)22)7-19-21(12)10-26-15(24)17(4,5)6/h7-8H,9-10H2,1-6H3",XEXFVLNTPDXOJB-UHFFFAOYSA-N,CC(C)(C)C(=O)OCN1C=NC2=C(C=N[N]2COC(=O)C(C)(C)C)C1=O,-4.26,0.0,1,G1
C-1445,"2,2',3,4,4',5'-hexachlorodiphenyl  ether",InChI=1S/C12H4Cl6O/c13-5-1-2-9(12(18)11(5)17)19-10-4-7(15)6(14)3-8(10)16/h1-4H,PHSJJYZIFPWCLZ-UHFFFAOYSA-N,ClC1=C(Cl)C(=C(OC2=CC(=C(Cl)C=C2Cl)Cl)C=C1)Cl,-8.31,0.0649999999999995,2,G3
C-1446,methyl thiabendazole-1-carboxylate; 1-methoxycarbonylthiabendazole; 1-methoxycarbonyl-2-(4-thiazolyl)benzimidazole,"InChI=1S/C12H9N3O2S/c1-17-12(16)15-10-5-3-2-4-8(10)14-11(15)9-6-18-7-13-9/h2-7H,1H3",XOLFCAOGEVVBST-UHFFFAOYSA-N,COC(=O)[N]1C2=C(C=CC=C2)N=C1C3=CSC=N3,-3.11,0.0,1,G1
C-1447,"2,2',3,3',4,4'-hexachlorodiphenyl  ether",InChI=1S/C12H4Cl6O/c13-5-1-3-7(11(17)9(5)15)19-8-4-2-6(14)10(16)12(8)18/h1-4H,ATIMVMORQPKRPC-UHFFFAOYSA-N,ClC1=C(Cl)C(=C(OC2=CC=C(Cl)C(=C2Cl)Cl)C=C1)Cl,-8.14,0.0,1,G1
C-1448,butanoyloxymethyl nalidixate;  nalidixic acid butanoyloxymethyl ester,"InChI=1S/C17H20N2O5/c1-4-6-14(20)23-10-24-17(22)13-9-19(5-2)16-12(15(13)21)8-7-11(3)18-16/h7-9H,4-6,10H2,1-3H3",YCPMGOBLONVZFZ-UHFFFAOYSA-N,CCCC(=O)OCOC(=O)C1=CN(CC)C2=C(C=CC(=N2)C)C1=O,-2.95,0.0,1,G1
C-1449,"2,2',3,4,4',5-hexachlorodiphenyl  ether",InChI=1S/C12H4Cl6O/c13-5-1-2-8(6(14)3-5)19-9-4-7(15)10(16)12(18)11(9)17/h1-4H,LDPJEMNNPDFBCQ-UHFFFAOYSA-N,ClC1=CC=C(OC2=C(Cl)C(=C(Cl)C(=C2)Cl)Cl)C(=C1)Cl,-8.44,0.0,1,G1
C-1450,"2,2',4,4',5,6'-hexachlorodiphenyl  ether",InChI=1S/C12H4Cl6O/c13-5-1-9(17)12(10(18)2-5)19-11-4-7(15)6(14)3-8(11)16/h1-4H,XKQUAQGQLZDDBV-UHFFFAOYSA-N,ClC1=CC(=C(OC2=C(Cl)C=C(Cl)C(=C2)Cl)C(=C1)Cl)Cl,-8.04,0.0,1,G1
C-1451,dimefuron,"InChI=1S/C15H19ClN4O3/c1-15(2,3)12-18-20(14(22)23-12)11-7-6-9(8-10(11)16)17-13(21)19(4)5/h6-8H,1-5H3,(H,17,21)",DHWRNDJOGMTCPB-UHFFFAOYSA-N,CN(C)C(=O)NC1=CC(=C(C=C1)N2N=C(OC2=O)C(C)(C)C)Cl,-4.33,0.0,1,G1
C-1452,isobutanoyloxymethyl nalidixate;  nalidixic acid isobutanoyloxymethyl ester,"InChI=1S/C17H20N2O5/c1-5-19-8-13(17(22)24-9-23-16(21)10(2)3)14(20)12-7-6-11(4)18-15(12)19/h6-8,10H,5,9H2,1-4H3",UHAXPDKVSONCGG-UHFFFAOYSA-N,CCN1C=C(C(=O)OCOC(=O)C(C)C)C(=O)C2=C1N=C(C)C=C2,-3.02,0.0,1,G1
C-1453,"2,2',3,4,4',6'-hexachlorodiphenyl  ether",InChI=1S/C12H4Cl6O/c13-5-3-7(15)12(8(16)4-5)19-9-2-1-6(14)10(17)11(9)18/h1-4H,XDAOZRZWYVKIAK-UHFFFAOYSA-N,ClC1=CC(=C(OC2=C(Cl)C(=C(Cl)C=C2)Cl)C(=C1)Cl)Cl,-8.1,0.0,1,G1
C-1454,triflumuron,"InChI=1S/C15H10ClF3N2O3/c16-12-4-2-1-3-11(12)13(22)21-14(23)20-9-5-7-10(8-6-9)24-15(17,18)19/h1-8H,(H2,20,21,22,23)",XAIPTRIXGHTTNT-UHFFFAOYSA-N,FC(F)(F)OC1=CC=C(NC(=O)NC(=O)C2=CC=CC=C2Cl)C=C1,-7.16,0.0,1,G1
C-1455,"2,3,4,4',5,6-hexachlorodiphenyl  ether",InChI=1S/C12H4Cl6O/c13-5-1-3-6(4-2-5)19-12-10(17)8(15)7(14)9(16)11(12)18/h1-4H,MXDRLBNLTLOWGV-UHFFFAOYSA-N,ClC1=CC=C(OC2=C(Cl)C(=C(Cl)C(=C2Cl)Cl)Cl)C=C1,-8.94,0.0,1,G1
C-1456,clodinafop-propargyl,"InChI=1S/C17H13ClFNO4/c1-3-8-22-17(21)11(2)23-13-4-6-14(7-5-13)24-16-15(19)9-12(18)10-20-16/h1,4-7,9-11H,8H2,2H3",JBDHZKLJNAIJNC-UHFFFAOYSA-N,CC(OC1=CC=C(OC2=NC=C(Cl)C=C2F)C=C1)C(=O)OCC#C,-5.15,0.0,1,G1
C-1457,thenylchlor,"InChI=1S/C16H18ClNO2S/c1-11-5-4-6-12(2)16(11)18(15(19)9-17)10-14-13(20-3)7-8-21-14/h4-8H,9-10H2,1-3H3",KDWQYMVPYJGPHS-UHFFFAOYSA-N,COC1=C(CN(C(=O)CCl)C2=C(C)C=CC=C2C)SC=C1,-4.47,0.0,1,G1
C-1458,temazepam;  3-hydroxydiazepam,"InChI=1S/C16H13ClN2O2/c1-19-13-8-7-11(17)9-12(13)14(18-15(20)16(19)21)10-5-3-2-4-6-10/h2-9,15,20H,1H3",SEQDDYPDSLOBDC-UHFFFAOYSA-N,CN1C(=O)C(O)N=C(C2=CC=CC=C2)C3=C1C=CC(=C3)Cl,-2.7,0.0,1,G1
C-1460,fluorodifen,"InChI=1S/C13H7F3N2O5/c14-13(15,16)8-1-6-12(11(7-8)18(21)22)23-10-4-2-9(3-5-10)17(19)20/h1-7H",HHMCAJWVGYGUEF-UHFFFAOYSA-N,[O-][N+](=O)C1=CC=C(OC2=CC=C(C=C2[N+]([O-])=O)C(F)(F)F)C=C1,-5.22,0.0,1,G1
C-1461,felodipine,"InChI=1S/C18H19Cl2NO4/c1-5-25-18(23)14-10(3)21-9(2)13(17(22)24-4)15(14)11-7-6-8-12(19)16(11)20/h6-8,15,21H,5H2,1-4H3",RZTAMFZIAATZDJ-UHFFFAOYSA-N,CCOC(=O)C1=C(C)NC(=C(C1C2=CC=CC(=C2Cl)Cl)C(=O)OC)C,-6.56,0.0,1,G1
C-1462,tebufenozide,"InChI=1S/C22H28N2O2/c1-7-17-8-10-18(11-9-17)20(25)23-24(22(4,5)6)21(26)19-13-15(2)12-16(3)14-19/h8-14H,7H2,1-6H3,(H,23,25)",QYPNKSZPJQQLRK-UHFFFAOYSA-N,CCC1=CC=C(C=C1)C(=O)NN(C(=O)C2=CC(=CC(=C2)C)C)C(C)(C)C,-5.63,0.0,1,G1
C-1463,clozapine,"InChI=1S/C18H19ClN4/c1-22-8-10-23(11-9-22)18-14-4-2-3-5-15(14)20-16-7-6-13(19)12-17(16)21-18/h2-7,12,20H,8-11H2,1H3",QZUDBNBUXVUHMW-UHFFFAOYSA-N,CN1CCN(CC1)C2=NC3=C(NC4=C2C=CC=C4)C=CC(=C3)Cl,-4.64,0.0,1,G1
C-1464,ethyl thiabendazole-1-carboxylate; 1-ethoxycarbonylthiabendazole; 1-ethoxycarbonyl-2-(4-thiazolyl)benzimidazole,"InChI=1S/C13H11N3O2S/c1-2-18-13(17)16-11-6-4-3-5-9(11)15-12(16)10-7-19-8-14-10/h3-8H,2H2,1H3",UGRWIGCKFYJTEL-UHFFFAOYSA-N,CCOC(=O)[N]1C2=C(C=CC=C2)N=C1C3=CSC=N3,-2.92,0.0,1,G1
C-1465,thiazopyr,"InChI=1S/C16H17F5N2O2S/c1-7(2)6-8-9(15(24)25-3)11(13(17)18)23-12(16(19,20)21)10(8)14-22-4-5-26-14/h7,13H,4-6H2,1-3H3",YIJZJEYQBAAWRJ-UHFFFAOYSA-N,COC(=O)C1=C(CC(C)C)C(=C(N=C1C(F)F)C(F)(F)F)C2=NCCS2,-5.2,0.0,1,G1
C-1466,cyanofenphos,"InChI=1S/C15H14NO2PS/c1-2-17-19(20,15-6-4-3-5-7-15)18-14-10-8-13(12-16)9-11-14/h3-11H,2H2,1H3",LRNJHZNPJSPMGK-UHFFFAOYSA-N,CCO[P](=S)(OC1=CC=C(C=C1)C#N)C2=CC=CC=C2,-5.7,0.0,1,G1
C-1467,"naproxen [n,n-bis(2-hydroxyethyl)carbamoyl]methyl ester","InChI=1S/C20H25NO6/c1-14(20(25)27-13-19(24)21(7-9-22)8-10-23)15-3-4-17-12-18(26-2)6-5-16(17)11-15/h3-6,11-12,14,22-23H,7-10,13H2,1-2H3",FZLRPSHQNAHYAG-UHFFFAOYSA-N,COC1=CC=C2C=C(C=CC2=C1)C(C)C(=O)OCC(=O)N(CCO)CCO,-2.96,0.0,1,G1
C-1469,prazepam,"InChI=1S/C19H17ClN2O/c20-15-8-9-17-16(10-15)19(14-4-2-1-3-5-14)21-11-18(23)22(17)12-13-6-7-13/h1-5,8-10,13H,6-7,11-12H2",MWQCHHACWWAQLJ-UHFFFAOYSA-N,ClC1=CC2=C(C=C1)N(CC3CC3)C(=O)CN=C2C4=CC=CC=C4,-4.91,0.0,1,G1
C-1470,flamprop-methyl,"InChI=1S/C17H15ClFNO3/c1-11(17(22)23-2)20(13-8-9-15(19)14(18)10-13)16(21)12-6-4-3-5-7-12/h3-11H,1-2H3",RBNIGDFIUWJJEV-UHFFFAOYSA-N,COC(=O)C(C)N(C(=O)C1=CC=CC=C1)C2=CC=C(F)C(=C2)Cl,-3.98,0.0,1,G1
C-1471,"n,n-diethylcarbamoylmethyl nalidixate;  nalidixic acid (n,n-diethylcarbamoyl)methyl ester","InChI=1S/C18H23N3O4/c1-5-20(6-2)15(22)11-25-18(24)14-10-21(7-3)17-13(16(14)23)9-8-12(4)19-17/h8-10H,5-7,11H2,1-4H3",XZIBWWMTMXSPOO-UHFFFAOYSA-N,CCN(CC)C(=O)COC(=O)C1=CN(CC)C2=C(C=CC(=N2)C)C1=O,-1.43,0.0,1,G1
C-1474,mefenacet,"InChI=1S/C16H14N2O2S/c1-18(12-7-3-2-4-8-12)15(19)11-20-16-17-13-9-5-6-10-14(13)21-16/h2-10H,11H2,1H3",XIGAUIHYSDTJHW-UHFFFAOYSA-N,CN(C(=O)COC1=NC2=C(S1)C=CC=C2)C3=CC=CC=C3,-4.87,0.0,1,G1
C-1476,naproxen ester vd; naproxen [n-(carbamoylmethyl)-n-(methyl)carbamoyl]methyl ester,"InChI=1S/C19H22N2O5/c1-12(19(24)26-11-18(23)21(2)10-17(20)22)13-4-5-15-9-16(25-3)7-6-14(15)8-13/h4-9,12H,10-11H2,1-3H3,(H2,20,22)",FQKXIOAPTXUHEK-UHFFFAOYSA-N,COC1=CC=C2C=C(C=CC2=C1)C(C)C(=O)OCC(=O)N(C)CC(N)=O,-3.78,0.0,1,G1
C-1477,1-(propoxycarbonyl)thiabendazole,"InChI=1S/C14H13N3O2S/c1-2-7-19-14(18)17-12-6-4-3-5-10(12)16-13(17)11-8-20-9-15-11/h3-6,8-9H,2,7H2,1H3",CFXHTONTAWFEIR-UHFFFAOYSA-N,CCCOC(=O)[N]1C2=C(C=CC=C2)N=C1C3=CSC=N3,-3.52,0.0,1,G1
C-1478,coumatetralyl,"InChI=1S/C19H16O3/c20-18-15-9-3-4-11-16(15)22-19(21)17(18)14-10-5-7-12-6-1-2-8-13(12)14/h1-4,6,8-9,11,14,20H,5,7,10H2",ULSLJYXHZDTLQK-UHFFFAOYSA-N,OC1=C(C2CCCC3=CC=CC=C23)C(=O)OC4=CC=CC=C14,-4.86,1.0100000000000002,2,G2
C-1479,"entacapone analog (2 b); (e)-2-cyano-n,n-diethyl-3-(3-butylaminocarbonyloxy-4-hydroxy-5-nitrophenyl)propenamide","InChI=1S/C19H24N4O6/c1-4-7-8-21-19(26)29-16-11-13(10-15(17(16)24)23(27)28)9-14(12-20)18(25)22(5-2)6-3/h9-11,24H,4-8H2,1-3H3,(H,21,26)/b14-9-",LAYLZIREKXYMDV-ZROIWOOFSA-N,CCCCNC(=O)OC1=C(O)C(=CC(=C1)\C=C(C#N)/C(=O)N(CC)CC)[N+]([O-])=O,-2.32,0.0,1,G1
C-1480,"1,3,6,8-tetrachlorodibenzodioxin",InChI=1S/C12H4Cl4O2/c13-5-1-7(15)11-9(3-5)18-12-8(16)2-6(14)4-10(12)17-11/h1-4H,OTQFXRBLGNEOGH-UHFFFAOYSA-N,ClC1=CC2=C(OC3=C(O2)C(=CC(=C3)Cl)Cl)C(=C1)Cl,-9.0,0.0,1,G1
C-1481,"2,2',3,4,4',5,5'-heptachlorodiphenyl  ether",InChI=1S/C12H3Cl7O/c13-4-1-6(15)8(2-5(4)14)20-9-3-7(16)10(17)12(19)11(9)18/h1-3H,YBYYCWMPXZRBNJ-UHFFFAOYSA-N,ClC1=C(Cl)C=C(OC2=C(Cl)C(=C(Cl)C(=C2)Cl)Cl)C(=C1)Cl,-9.5,0.0,1,G1
C-1483,"2,3,3',4,4',5,6-heptachlorodiphenyl  ether",InChI=1S/C12H3Cl7O/c13-5-2-1-4(3-6(5)14)20-12-10(18)8(16)7(15)9(17)11(12)19/h1-3H,QLSBRXLSQINWHM-UHFFFAOYSA-N,ClC1=CC=C(OC2=C(Cl)C(=C(Cl)C(=C2Cl)Cl)Cl)C=C1Cl,-9.46,0.0,1,G1
C-1484,"entacapone analog (2 c); (e)-2-cyano-n,n-diethyl-3-(3-tert-butylaminocarbonyloxy-4-hydroxy-5-nitrophenyl)propenamide","InChI=1S/C19H24N4O6/c1-6-22(7-2)17(25)13(11-20)8-12-9-14(23(27)28)16(24)15(10-12)29-18(26)21-19(3,4)5/h8-10,24H,6-7H2,1-5H3,(H,21,26)/b13-8-",BSVGCJGACKDNDR-JYRVWZFOSA-N,CCN(CC)C(=O)\C(=C/C1=CC(=C(O)C(=C1)[N+]([O-])=O)OC(=O)NC(C)(C)C)C#N,-3.53,0.0,1,G1
C-1485,"2,2',3,4',5,5',6-heptachlorodiphenyl  ether",InChI=1S/C12H3Cl7O/c13-4-1-6(15)9(3-5(4)14)20-12-10(18)7(16)2-8(17)11(12)19/h1-3H,BHJCMMGUFRZLKK-UHFFFAOYSA-N,ClC1=C(Cl)C=C(OC2=C(Cl)C(=CC(=C2Cl)Cl)Cl)C(=C1)Cl,-9.05,0.0,1,G1
C-1487,"2,2',3,3',4',5,6-heptachlorodiphenyl  ether",InChI=1S/C12H3Cl7O/c13-4-1-2-7(11(19)8(4)16)20-12-9(17)5(14)3-6(15)10(12)18/h1-3H,RXPQVFMDOJTCKE-UHFFFAOYSA-N,ClC1=CC=C(OC2=C(Cl)C(=CC(=C2Cl)Cl)Cl)C(=C1Cl)Cl,-9.09,0.0,1,G1
C-1488,"2,2',3,3',4,5,6'-heptachlorodiphenyl  ether",InChI=1S/C12H3Cl7O/c13-4-1-2-5(14)12(9(4)17)20-7-3-6(15)8(16)11(19)10(7)18/h1-3H,DQYYZAABYZAOOC-UHFFFAOYSA-N,ClC1=CC=C(Cl)C(=C1Cl)OC2=C(Cl)C(=C(Cl)C(=C2)Cl)Cl,-8.89,0.0,1,G1
C-1489,1-(isobutoxycarbonyl)thiabendazole; 1-isobutoxycarbonyl-2-(thiazol-4-yl)benzimidazole,"InChI=1S/C15H15N3O2S/c1-10(2)7-20-15(19)18-13-6-4-3-5-11(13)17-14(18)12-8-21-9-16-12/h3-6,8-10H,7H2,1-2H3",APCDMDJMHYSEPA-UHFFFAOYSA-N,CC(C)COC(=O)[N]1C2=C(C=CC=C2)N=C1C3=CSC=N3,-4.17,0.0,1,G1
C-1490,"tetradifon;  1,2,4-trichloro-5-[(4-chlorophenyl)sulfonyl]benzene","InChI=1S/C12H6Cl4O2S/c13-7-1-3-8(4-2-7)19(17,18)12-6-10(15)9(14)5-11(12)16/h1-6H",MLGCXEBRWGEOQX-UHFFFAOYSA-N,ClC1=CC=C(C=C1)[S](=O)(=O)C2=C(Cl)C=C(Cl)C(=C2)Cl,-6.66,0.0,1,G1
C-1491,acifluorfen;  5-[2-chloro-4-(trifluoromethyl)phenoxy]-2-nitrobenzoic acid,"InChI=1S/C14H7ClF3NO5/c15-10-5-7(14(16,17)18)1-4-12(10)24-8-2-3-11(19(22)23)9(6-8)13(20)21/h1-6H,(H,20,21)",NUFNQYOELLVIPL-UHFFFAOYSA-N,OC(=O)C1=C(C=CC(=C1)OC2=CC=C(C=C2Cl)C(F)(F)F)[N+]([O-])=O,-3.48,0.0,1,G1
C-1492,epn; o-ethyl o-(4-nitrophenyl)phenylphosphonothionate,"InChI=1S/C14H14NO4PS/c1-2-18-20(21,14-6-4-3-5-7-14)19-13-10-8-12(9-11-13)15(16)17/h3-11H,2H2,1H3",AIGRXSNSLVJMEA-UHFFFAOYSA-N,CCO[P](=S)(OC1=CC=C(C=C1)[N+]([O-])=O)C2=CC=CC=C2,-5.02,0.0,1,G1
C-1493,flamprop-m-isopropyl,"InChI=1S/C19H19ClFNO3/c1-12(2)25-19(24)13(3)22(15-9-10-17(21)16(20)11-15)18(23)14-7-5-4-6-8-14/h4-13H,1-3H3",IKVXBIIHQGXQRQ-UHFFFAOYSA-N,CC(C)OC(=O)C(C)N(C(=O)C1=CC=CC=C1)C2=CC=C(F)C(=C2)Cl,-4.31,0.0,1,G1
C-1494,azinphos-ethyl,"InChI=1S/C12H16N3O3PS2/c1-3-17-19(20,18-4-2)21-9-15-12(16)10-7-5-6-8-11(10)13-14-15/h5-8H,3-4,9H2,1-2H3",RQVGAIADHNPSME-UHFFFAOYSA-N,CCO[P](=S)(OCC)SCN1N=NC2=CC=CC=C2C1=O,-4.52,0.0,1,G1
C-1495,"bitertanol  (racemates a + b;  [(1r,2s)+(1s,2r)]  +  [(1r,2r)+(1s,2s)])","InChI=1S/C20H23N3O2/c1-20(2,3)18(24)19(23-14-21-13-22-23)25-17-11-9-16(10-12-17)15-7-5-4-6-8-15/h4-14,18-19,24H,1-3H3",VGPIBGGRCVEHQZ-UHFFFAOYSA-N,CC(C)(C)C(O)C(OC1=CC=C(C=C1)C2=CC=CC=C2)[N]3C=NC=N3,-4.83,0.0,1,G1
C-1496,inabenfide,"InChI=1S/C19H15ClN2O2/c20-15-6-7-17(22-19(24)14-8-10-21-11-9-14)16(12-15)18(23)13-4-2-1-3-5-13/h1-12,18,23H,(H,22,24)",PFDCOZXELJAUTR-UHFFFAOYSA-N,OC(C1=CC=CC=C1)C2=C(NC(=O)C3=CC=NC=C3)C=CC(=C2)Cl,-5.53,0.0,1,G1
C-1497,pyridaphenthion,"InChI=1S/C14H17N2O4PS/c1-3-18-21(22,19-4-2)20-13-10-11-14(17)16(15-13)12-8-6-5-7-9-12/h5-11H,3-4H2,1-2H3",CXJSOEPQXUCJSA-UHFFFAOYSA-N,CCO[P](=S)(OCC)OC1=NN(C(=O)C=C1)C2=CC=CC=C2,-3.53,0.0,1,G1
C-1498,"leptophos, o-analog","InChI=1S/C13H10BrCl2O3P/c1-18-20(17,9-5-3-2-4-6-9)19-13-8-11(15)10(14)7-12(13)16/h2-8H,1H3",MAKUYRKZFGSMMG-UHFFFAOYSA-N,CO[P](=O)(OC1=C(Cl)C=C(Br)C(=C1)Cl)C2=CC=CC=C2,-4.99,0.0,1,G1
C-1499,"2,2',3,4,4',5,5',6-octachlorodiphenyl  ether",InChI=1S/C12H2Cl8O/c13-3-1-5(15)6(2-4(3)14)21-12-10(19)8(17)7(16)9(18)11(12)20/h1-2H,PKOSPVZTRLMBSK-UHFFFAOYSA-N,ClC1=C(Cl)C=C(OC2=C(Cl)C(=C(Cl)C(=C2Cl)Cl)Cl)C(=C1)Cl,-10.1,0.020000000000000462,2,G3
C-1500,"2,2',3,3',4,4',5,6-octachlorodiphenyl  ether",InChI=1S/C12H2Cl8O/c13-3-1-2-4(6(15)5(3)14)21-12-10(19)8(17)7(16)9(18)11(12)20/h1-2H,YHUPMPHVHYBYJE-UHFFFAOYSA-N,ClC1=C(Cl)C(=C(OC2=C(Cl)C(=C(Cl)C(=C2Cl)Cl)Cl)C=C1)Cl,-10.6,0.0,1,G1
C-1501,"2,2',3,3',4,5,5',6'-octachlorodiphenyl  ether",InChI=1S/C12H2Cl8O/c13-3-1-4(14)9(18)12(8(3)17)21-6-2-5(15)7(16)11(20)10(6)19/h1-2H,MRHQOXCYYPFGEE-UHFFFAOYSA-N,ClC1=C(Cl)C(=C(Cl)C(=C1)Cl)OC2=C(Cl)C(=C(Cl)C(=C2)Cl)Cl,-10.1,0.0,1,G1
C-1503,(z)-pyriminobac-methyl,"InChI=1S/C17H19N3O6/c1-10(20-25-5)11-7-6-8-12(15(11)16(21)24-4)26-17-18-13(22-2)9-14(19-17)23-3/h6-9H,1-5H3/b20-10-",USSIUIGPBLPCDF-JMIUGGIZSA-N,CO\N=C(C)/C1=CC=CC(=C1C(=O)OC)OC2=NC(=CC(=N2)OC)OC,-3.31,0.0,1,G1
C-1506,omeprazole,"InChI=1S/C17H19N3O3S/c1-10-8-18-15(11(2)16(10)23-4)9-24(21)17-19-13-6-5-12(22-3)7-14(13)20-17/h5-8H,9H2,1-4H3,(H,19,20)",SUBDBMMJDZJVOS-UHFFFAOYSA-N,COC1=CC2=C([NH]C(=N2)[S](=O)CC3=C(C)C(=C(C)C=N3)OC)C=C1,-4.28,0.0,1,G1
C-1507,(r)-quizalofop-ethyl,"InChI=1S/C19H17ClN2O4/c1-3-24-19(23)12(2)25-14-5-7-15(8-6-14)26-18-11-21-17-10-13(20)4-9-16(17)22-18/h4-12H,3H2,1-2H3",OSUHJPCHFDQAIT-UHFFFAOYSA-N,CCOC(=O)C(C)OC1=CC=C(OC2=NC3=C(C=C(Cl)C=C3)N=C2)C=C1,-5.97,0.06199999999999983,2,G3
C-1508,"13h-dibenzo[a,i]carbazole","InChI=1S/C20H13N/c1-3-7-15-13(5-1)9-11-17-18-12-10-14-6-2-4-8-16(14)20(18)21-19(15)17/h1-12,21H",IUILSTHMSGDSHQ-UHFFFAOYSA-N,[NH]1C2=C(C=CC3=C2C=CC=C3)C4=C1C5=C(C=CC=C5)C=C4,-7.41,0.0,1,G1
C-1509,acyclovir  ester  x;  omega-acyclovir (4-morpholin-4-ylmethyl)benzoate,"InChI=1S/C20H24N6O5/c21-20-23-17-16(18(27)24-20)22-12-26(17)13-30-9-10-31-19(28)15-3-1-14(2-4-15)11-25-5-7-29-8-6-25/h1-4,12H,5-11,13H2,(H3,21,23,24,27)",JSDGCANKASDATC-UHFFFAOYSA-N,NC1=NC2=C(N=C[N]2COCCOC(=O)C3=CC=C(CN4CCOCC4)C=C3)C(=O)N1,-2.75,0.0,1,G1
C-1512,hexaflumuron;  consult,"InChI=1S/C16H8Cl2F6N2O3/c17-7-4-6(5-8(18)12(7)29-16(23,24)14(21)22)25-15(28)26-13(27)11-9(19)2-1-3-10(11)20/h1-5,14H,(H2,25,26,27,28)",RGNPBRKPHBKNKX-UHFFFAOYSA-N,FC(F)C(F)(F)OC1=C(Cl)C=C(NC(=O)NC(=O)C2=C(F)C=CC=C2F)C=C1Cl,-5.82,0.0,1,G1
C-1513,bromofenoxim,"InChI=1S/C13H7Br2N3O6/c14-9-3-7(4-10(15)13(9)19)6-16-24-12-2-1-8(17(20)21)5-11(12)18(22)23/h1-6,19H/b16-6+",XTFNPKDYCLFGPV-OMCISZLKSA-N,OC1=C(Br)C=C(\C=N\OC2=C(C=C(C=C2)[N+]([O-])=O)[N+]([O-])=O)C=C1Br,-5.19,0.0,1,G1
C-1514,difenoconazole,"InChI=1S/C19H17Cl2N3O3/c1-13-9-25-19(27-13,10-24-12-22-11-23-24)17-7-6-16(8-18(17)21)26-15-4-2-14(20)3-5-15/h2-8,11-13H,9-10H2,1H3",BQYJATMQXGBDHF-UHFFFAOYSA-N,CC1COC(C[N]2C=NC=N2)(O1)C3=C(Cl)C=C(OC4=CC=C(Cl)C=C4)C=C3,-4.91,0.23865000000000025,2,G3
C-1515,dithianon,InChI=1S/C14H4N2O2S2/c15-5-9-10(6-16)20-14-12(18)8-4-2-1-3-7(8)11(17)13(14)19-9/h1-4H,PYZSVQVRHDXQSL-UHFFFAOYSA-N,O=C1C2=C(SC(=C(S2)C#N)C#N)C(=O)C3=C1C=CC=C3,-6.33,0.0,1,G1
C-1517,pyrazoxyfen,"InChI=1S/C20H16Cl2N2O3/c1-12-18(19(26)15-9-8-14(21)10-16(15)22)20(24(2)23-12)27-11-17(25)13-6-4-3-5-7-13/h3-10H,11H2,1-2H3",FKERUJTUOYLBKB-UHFFFAOYSA-N,C[N]1N=C(C)C(=C1OCC(=O)C2=CC=CC=C2)C(=O)C3=CC=C(Cl)C=C3Cl,-2.65,0.0,1,G1
C-1518,pyrazosulfuron-ethyl,"InChI=1S/C14H18N6O7S/c1-5-27-12(21)8-7-15-20(2)11(8)28(23,24)19-14(22)18-13-16-9(25-3)6-10(17-13)26-4/h6-7H,5H2,1-4H3,(H2,16,17,18,19,22)",BGNQYGRXEXDAIQ-UHFFFAOYSA-N,CCOC(=O)C1=C([N](C)N=C1)[S](=O)(=O)NC(=O)NC2=NC(=CC(=N2)OC)OC,-4.46,0.0,1,G1
C-1519,lactofen;  cobra,"InChI=1S/C19H15ClF3NO7/c1-3-29-17(25)10(2)30-18(26)13-9-12(5-6-15(13)24(27)28)31-16-7-4-11(8-14(16)20)19(21,22)23/h4-10H,3H2,1-2H3",CONWAEURSVPLRM-UHFFFAOYSA-N,CCOC(=O)C(C)OC(=O)C1=C(C=CC(=C1)OC2=C(Cl)C=C(C=C2)C(F)(F)F)[N+]([O-])=O,-6.66,0.0,1,G1
C-1521,fluquinconazole,InChI=1S/C16H8Cl2FN5O/c17-9-1-4-14(12(18)5-9)24-15(25)11-6-10(19)2-3-13(11)22-16(24)23-8-20-7-21-23/h1-8H,IJJVMEJXYNJXOJ-UHFFFAOYSA-N,FC1=CC2=C(C=C1)N=C([N]3C=NC=N3)N(C2=O)C4=C(Cl)C=C(Cl)C=C4,-5.58,0.0,1,G1
C-1523,clofazimine,"InChI=1S/C27H22Cl2N4/c1-17(2)30-24-16-27-25(15-23(24)31-20-11-7-18(28)8-12-20)32-22-5-3-4-6-26(22)33(27)21-13-9-19(29)10-14-21/h3-17,31H,1-2H3",WDQPAMHFFCXSNU-UHFFFAOYSA-N,CC(C)N=C1C=C2N(C3=CC=C(Cl)C=C3)C4=C(C=CC=C4)N=C2C=C1NC5=CC=C(Cl)C=C5,-6.24,0.0,1,G1
C-1524,paclitaxel;  taxol a,"InChI=1S/C47H51NO14/c1-25-31(60-43(56)36(52)35(28-16-10-7-11-17-28)48-41(54)29-18-12-8-13-19-29)23-47(57)40(61-42(55)30-20-14-9-15-21-30)38-45(6,32(51)22-33-46(38,24-58-33)62-27(3)50)39(53)37(59-26(2)49)34(25)44(47,4)5/h7-21,31-33,35-38,40,51-52,57H,22-24H2,1-6H3,(H,48,54)",RCINICONZNJXQF-UHFFFAOYSA-N,CC(=O)OC1C(=O)C2(C)C(O)CC3OCC3(OC(C)=O)C2C(OC(=O)C4=CC=CC=C4)C5(O)CC(OC(=O)C(O)C(NC(=O)C6=CC=CC=C6)C7=CC=CC=C7)C(=C1C5(C)C)C,-6.33,0.0,1,G1
C-1525,"2,3-dimethyl-1,3-butadiene","InChI=1S/C6H10/c1-5(2)6(3)4/h1,3H2,2,4H3",SDJHPPZKZZWAKF-UHFFFAOYSA-N,CC(=C)C(C)=C,-2.4,0.0,1,G1
C-1526,hexamethyleneimine;  homopiperidine;  azacycloheptane; azepane,"InChI=1S/C6H13N/c1-2-4-6-7-5-3-1/h7H,1-6H2",ZSIQJIWKELUFRJ-UHFFFAOYSA-N,C1CCCNCC1,-0.49,0.362,2,G3
C-1527,2-methylpiperazine,"InChI=1S/C5H12N2/c1-5-4-6-2-3-7-5/h5-7H,2-4H2,1H3",JOMNTHCQHJPVAZ-UHFFFAOYSA-N,CC1CNCCN1,0.64,0.04999999999999999,2,G3
C-1528,3-methyl-1-pentyn-3-ol,"InChI=1S/C6H10O/c1-4-6(3,7)5-2/h1,7H,5H2,2-3H3",QXLPXWSKPNOQLE-UHFFFAOYSA-N,CCC(C)(O)C#C,0.0,0.0575,2,G3
C-1529,"hexamethylethane;  2,2,3,3-tetramethylbutane","InChI=1S/C8H18/c1-7(2,3)8(4,5)6/h1-6H3",OMMLUKLXGSRPHK-UHFFFAOYSA-N,CC(C)(C)C(C)(C)C,-4.87,0.0,1,G1
C-1530,tris(hydroxymethyl)aminomethane;  tromethane,"InChI=1S/C4H11NO3/c5-4(1-6,2-7)3-8/h6-8H,1-3,5H2",LENZDBCJOHFCAS-UHFFFAOYSA-N,NC(CO)(CO)CO,0.66,0.0,1,G1
C-1533,pentaerythritol;  tetrakis(hydroxymethyl)methane,"InChI=1S/C5H12O4/c6-1-5(2-7,3-8)4-9/h6-9H,1-4H2",WXZMFSXDPGVJKK-UHFFFAOYSA-N,OCC(CO)(CO)CO,-0.28,0.07999999999999999,2,G3
C-1535,2-cyanoacetamide,"InChI=1S/C3H4N2O/c4-2-1-3(5)6/h1H2,(H2,5,6)",DGJMPUGMZIKDRO-UHFFFAOYSA-N,NC(=O)CC#N,0.19,0.0,1,G1
C-1536,dl-isovaline;  dl-2-amino-2-methylbutanoic acid,"InChI=1S/C5H11NO2/c1-3-5(2,6)4(7)8/h3,6H2,1-2H3,(H,7,8)",GCHPUFAZSONQIV-UHFFFAOYSA-N,CCC(C)(N)C(O)=O,0.38,0.0,1,G1
C-1537,4-heptanone;  dipropyl  ketone,"InChI=1S/C7H14O/c1-3-5-7(8)6-4-2/h3-6H2,1-2H3",HCFAJYNVAYBARA-UHFFFAOYSA-N,CCCC(=O)CCC,-1.48,0.10598113039593408,3,G5
C-1538,"camphene;  2,2-dimethyl-3-methylenenorbornane;  2,2-dimethyl-3-methylenebicyclo[2.2.1]heptane","InChI=1S/C10H16/c1-7-8-4-5-9(6-8)10(7,2)3/h8-9H,1,4-6H2,2-3H3",CRPUJAZIXJMDBK-UHFFFAOYSA-N,CC1(C)C2CCC(C2)C1=C,-4.47,0.0,1,G1
C-1541,ethambutol; emb,"InChI=1S/C10H24N2O2/c1-3-9(7-13)11-5-6-12-10(4-2)8-14/h9-14H,3-8H2,1-2H3",AEUTYOVWOVBAKS-UHFFFAOYSA-N,CCC(CO)NCCNC(CC)CO,0.57,0.0,1,G1
C-1546,"(e)-1,2-diiodoethene;  1,2-diiodoethylene (trans)",InChI=1S/C2H2I2/c3-1-2-4/h1-2H/b2-1+,CVOGMKGEVNGRSK-OWOJBTEDSA-N,I\C=C\I,-3.22,0.028349999999999875,2,G3
C-1548,methylglyoxime,"InChI=1S/C3H6N2O2/c1-3(5-7)2-4-6/h2,6-7H,1H3/b4-2+,5-3+",KFTHGQZJWAXFGG-ZUVMSYQZSA-N,CC(\C=N\O)=N/O,-0.35,0.0,1,G1
C-1549,"1,1-difluorotetrachloroethane","InChI=1S/C2Cl4F2/c3-1(4,5)2(6,7)8",SLGOCMATMKJJCE-UHFFFAOYSA-N,FC(F)(Cl)C(Cl)(Cl)Cl,-3.31,0.0,1,G1
C-1551,dl-norvaline;  dl-2-aminopentanoic  acid,"InChI=1S/C5H11NO2/c1-2-3-4(6)5(7)8/h4H,2-3,6H2,1H3,(H,7,8)",SNDPXSYFESPGGJ-UHFFFAOYSA-N,CCCC(N)C(O)=O,-0.11,0.030979706619369756,3,G5