ID,Name,InChI,InChIKey,SMILES,Solubility,SD,Occurrences,Group
I-8,amantadine,"InChI=1S/C10H17N/c11-10-4-7-1-8(5-10)3-9(2-7)6-10/h7-9H,1-6,11H2",DKNWSYNQZKUICI-UHFFFAOYSA-N,C1C2CC3CC(CC1C3)(N)C2,-1.85,0.6235825552839651,3,G4
I-26,ciprofloxacin,"InChI=1S/C17H18FN3O3/c18-13-7-11-14(8-15(13)20-5-3-19-4-6-20)21(10-1-2-10)9-12(16(11)22)17(23)24/h7-10,19H,1-6H2,(H,23,24)",MYSWGUAQZAJSOK-UHFFFAOYSA-N,O=C(c1cn(C2CC2)c2c(cc(F)c(N3CCNCC3)c2)c1=O)O,-3.6,1.1314883649423886,4,G4
I-53,miconazole,"InChI=1S/C18H14Cl4N2O/c19-13-2-1-12(16(21)7-13)10-25-18(9-24-6-5-23-11-24)15-4-3-14(20)8-17(15)22/h1-8,11,18H,9-10H2",BYBLEWFAAKGYCD-UHFFFAOYSA-N,Clc1ccc(COC(Cn2ccnc2)c2ccc(Cl)cc2Cl)c(Cl)c1,-5.07,0.81,2,G2
I-54,nalidixic_acid,"InChI=1S/C12H12N2O3/c1-3-14-6-9(12(16)17)10(15)8-5-4-7(2)13-11(8)14/h4-6H,3H2,1-2H3,(H,16,17)",MHWLWQUZZRMNGJ-UHFFFAOYSA-N,CCn1cc(c(=O)c2ccc(nc12)C)C(=O)O,-3.61,0.20417857108151405,3,G5
I-63,papaverine,"InChI=1S/C20H21NO4/c1-22-17-6-5-13(10-18(17)23-2)9-16-15-12-20(25-4)19(24-3)11-14(15)7-8-21-16/h5-8,10-12H,9H2,1-4H3",XQYZDYMELSJDRZ-UHFFFAOYSA-N,c1(nccc2cc(c(OC)cc12)OC)Cc1cc(c(cc1)OC)OC,-3.87,0.79,2,G2
I-66,phenobarbital,"InChI=1S/C12H12N2O3/c1-2-12(8-6-4-3-5-7-8)9(15)13-11(17)14-10(12)16/h3-7H,2H2,1H3,(H2,13,14,15,16,17)",DDBREPKUVSBGFI-UHFFFAOYSA-N,C1(NC(C(c2ccccc2)(C(=O)N1)CC)=O)=O,-2.29,0.09570036572552891,5,G5
I-70,pindolol,"InChI=1S/C14H20N2O2/c1-10(2)16-8-11(17)9-18-14-5-3-4-13-12(14)6-7-15-13/h3-7,10-11,15-17H,8-9H2,1-2H3",JZQKKSLKJUAGIC-UHFFFAOYSA-N,CC(C)NCC(O)COc1cccc2[nH]ccc12,-3.79,0.0946337971105226,3,G5
I-72,procaine,"InChI=1S/C13H20N2O2/c1-3-15(4-2)9-10-17-13(16)11-5-7-12(14)8-6-11/h5-8H,3-4,9-10,14H2,1-2H3",MFDFERRIHVXMIY-UHFFFAOYSA-N,Nc1ccc(C(OCCN(CC)CC)=O)cc1,-1.72,0.3160300618612097,4,G5
I-86,thymol,"InChI=1S/C10H14O/c1-7(2)9-5-4-8(3)6-10(9)11/h4-7,11H,1-3H3",MGSRCZKZVOBKFT-UHFFFAOYSA-N,c1(cc(ccc1C(C)C)C)O,-2.19,0.018099455012807106,3,G5
I-94,warfarin,"InChI=1S/C19H16O4/c1-12(20)11-15(13-7-3-2-4-8-13)17-18(21)14-9-5-6-10-16(14)23-19(17)22/h2-10,15,21H,11H2,1H3",PJVWKTKQMONHTI-UHFFFAOYSA-N,CC(=O)CC(c1ccccc1)c1c(O)c2ccccc2oc1=O,-4.78,0.45050588848044554,3,G5
C-5,bis(2-hydroxypropyl)amine,"InChI=1S/C6H15NO2/c1-5(8)3-7-4-6(2)9/h5-9H,3-4H2,1-2H3",LVTYICIALWPMFW-UHFFFAOYSA-N,CC(O)CNCC(C)O,0.81,0.17421233847459833,3,G5
C-25,6-aminohexanoic acid;  6-aminocaproic  acid,"InChI=1S/C6H13NO2/c7-5-3-1-2-4-6(8)9/h1-5,7H2,(H,8,9)",SLXKOJJOQWFEFD-UHFFFAOYSA-N,NCCCCCC(O)=O,0.59,0.03059687885000001,2,G3
C-32,"2,4-hexadienoic acid;  sorbic  acid","InChI=1S/C6H8O2/c1-2-3-4-5-6(7)8/h2-5H,1H3,(H,7,8)/b3-2+,5-4+",WSWCOQWTEOXDQX-MQQKCMAXSA-N,C\C=C\C=C\C(O)=O,-1.77,0.08385078805529504,3,G5
C-47,"fumaric  acid;  (e)-2-butenedioic acid;  (e)-1,2-ethenedicarboxylic acid","InChI=1S/C4H4O4/c5-3(6)1-2-4(7)8/h1-2H,(H,5,6)(H,7,8)/b2-1+",VZCYOOQTPOCHFL-OWOJBTEDSA-N,OC(=O)/C=C/C(O)=O,-1.22,2.898759188785962,6,G4
C-59,dl-malic acid;  dl-2-hydroxybutanedioic acid;  hydroxysuccinic acid,"InChI=1S/C4H6O5/c5-2(4(8)9)1-3(6)7/h2,5H,1H2,(H,6,7)(H,8,9)",BJEPYKJPYRNKOW-UHFFFAOYSA-N,OC(CC(O)=O)C(O)=O,0.64,0.15633678901920675,4,G5
C-71,"1,3,5-triaza-1,3,5-trinitrocyclohexane",InChI=1S/C3H6N6O6/c10-7(11)4-1-5(8(12)13)3-6(2-4)9(14)15/h1-3H2,XTFIVUDBNACUBN-UHFFFAOYSA-N,[O-][N+](=O)N1CN(CN(C1)[N+]([O-])=O)[N+]([O-])=O,-3.57,0.10366729553014073,3,G5
C-72,l(+)-arginine,"InChI=1S/C6H14N4O2/c7-4(5(11)12)2-1-3-10-6(8)9/h4H,1-3,7H2,(H,11,12)(H4,8,9,10)",ODKSFYDXXFIFQN-UHFFFAOYSA-N,NC(CCCNC(N)=N)C(O)=O,0.0,0.04355213902718522,4,G5
C-81,"1,3-phenylenediamine;  1,3-diaminobenzene","InChI=1S/C6H8N2/c7-5-2-1-3-6(8)4-5/h1-4H,7-8H2",WZCQRUWWHSTZEM-UHFFFAOYSA-N,NC1=CC(=CC=C1)N,0.51,0.10591949242885662,3,G5
C-91,4-ethylphenol,"InChI=1S/C8H10O/c1-2-7-3-5-8(9)6-4-7/h3-6,9H,2H2,1H3",HXDOZKJGKXYMEW-UHFFFAOYSA-N,CCC1=CC=C(O)C=C1,-1.4,0.10803398229587442,3,G5
C-107,"1,4-dichlorobenzene",InChI=1S/C6H4Cl2/c7-5-1-2-6(8)4-3-5/h1-4H,OCJBOOLMMGQPQU-UHFFFAOYSA-N,ClC1=CC=C(Cl)C=C1,-3.35,0.15055288100420805,6,G5
C-119,4-chloro-2-methylphenol;  4-chloro-2-cresol,"InChI=1S/C7H7ClO/c1-5-4-6(8)2-3-7(5)9/h2-4,9H,1H3",RHPUJHQBPORFGV-UHFFFAOYSA-N,CC1=C(O)C=CC(=C1)Cl,-1.55,0.12117300194999991,2,G3
C-234,ethyl 4-hydroxybenzoate;  ethylparaben,"InChI=1S/C9H10O3/c1-2-12-9(11)7-3-5-8(10)6-4-7/h3-6,10H,2H2,1H3",NUVBSKCKDOMJSU-UHFFFAOYSA-N,CCOC(=O)C1=CC=C(O)C=C1,-2.2,0.13833709974409672,5,G5
C-245,dl-phenylalanine,"InChI=1S/C9H11NO2/c10-8(9(11)12)6-7-4-2-1-3-5-7/h1-5,8H,6,10H2,(H,11,12)",COLNVLDHVKWLRT-UHFFFAOYSA-N,NC(CC1=CC=CC=C1)C(O)=O,-1.07,0.1824292541520737,4,G5
C-257,"3,4-dimethoxybenzaldehyde","InChI=1S/C9H10O3/c1-11-8-4-3-7(6-10)5-9(8)12-2/h3-6H,1-2H3",WJUFSDZVCOTFON-UHFFFAOYSA-N,COC1=C(OC)C=C(C=O)C=C1,-1.42,0.1865129189,2,G3
C-263,isoquinoline,InChI=1S/C9H7N/c1-2-4-9-7-10-6-5-8(9)3-1/h1-7H,AWJUIBRHMBBTKR-UHFFFAOYSA-N,C1=CC2=C(C=C1)C=NC=C2,-1.46,0.03455921386006222,4,G5
C-265,propylparaben;  propyl 4-hydroxybenzoate,"InChI=1S/C10H12O3/c1-2-7-13-10(12)8-3-5-9(11)6-4-8/h3-6,11H,2,7H2,1H3",QELSKZZBTMNZEB-UHFFFAOYSA-N,CCCOC(=O)C1=CC=C(O)C=C1,-2.68,0.0661966766537415,3,G5
C-277,2-(phenylhydrazono)malononitrile,"InChI=1S/C9H6N4/c10-6-9(7-11)13-12-8-4-2-1-3-5-8/h1-5,12H",MENUYOGJCXAFFU-UHFFFAOYSA-N,N#CC(=NNC1=CC=CC=C1)C#N,-3.36,1.5,2,G2
C-310,hippuric  acid;  n-benzoylglycine,"InChI=1S/C9H9NO3/c11-8(12)6-10-9(13)7-4-2-1-3-5-7/h1-5H,6H2,(H,10,13)(H,11,12)",QIAFMBKCNZACKA-UHFFFAOYSA-N,OC(=O)CNC(=O)C1=CC=CC=C1,-1.69,0.026246692913372727,3,G5
C-319,2-nitrobenzoic acid,"InChI=1S/C7H5NO4/c9-7(10)5-3-1-2-4-6(5)8(11)12/h1-4H,(H,9,10)",SLAMLWHELXOEJZ-UHFFFAOYSA-N,OC(=O)C1=C(C=CC=C1)[N+]([O-])=O,-1.35,0.06240370359379494,3,G5
C-343,ascorbic  acid;  vitamin c,"InChI=1S/C6H8O6/c7-1-2(8)5-3(9)4(10)6(11)12-5/h2,5,7-10H,1H2",CIWBSHSKHKDKBQ-UHFFFAOYSA-N,OCC(O)C1OC(=O)C(=C1O)O,0.28,0.545,2,G2
C-382,chenodeoxycholic  acid;  chenodiol,"InChI=1S/C24H40O4/c1-14(4-7-21(27)28)17-5-6-18-22-19(9-11-24(17,18)3)23(2)10-8-16(25)12-15(23)13-20(22)26/h14-20,22,25-26H,4-13H2,1-3H3,(H,27,28)",RUDATBOHQWOJDD-UHFFFAOYSA-N,CC(CCC(O)=O)C1CCC2C3C(O)CC4CC(O)CCC4(C)C3CCC12C,-4.57,0.4915790882452181,4,G5
C-401,"propazine;  2-chloro-4,6-bis(isopropylamino)-1,3,5-triazine","InChI=1S/C9H16ClN5/c1-5(2)11-8-13-7(10)14-9(15-8)12-6(3)4/h5-6H,1-4H3,(H2,11,12,13,14,15)",WJNRPILHGGKWCK-UHFFFAOYSA-N,CC(C)NC1=NC(=NC(=N1)Cl)NC(C)C,-4.46,0.2073407268378541,3,G5
C-415,4-chloro-3-nitrobenzoic  acid,"InChI=1S/C7H4ClNO4/c8-5-2-1-4(7(10)11)3-6(5)9(12)13/h1-3H,(H,10,11)",DFXQXFGFOLXAPO-UHFFFAOYSA-N,OC(=O)C1=CC=C(Cl)C(=C1)[N+]([O-])=O,-2.76,0.08499999999999996,2,G3
C-448,cimetidine,"InChI=1S/C10H16N6S/c1-8-9(16-7-15-8)5-17-4-3-13-10(12-2)14-6-11/h7H,3-5H2,1-2H3,(H,15,16)(H2,12,13,14)",AQIXAKUUQRKLND-UHFFFAOYSA-N,CNC(NCCSCC1=C(C)[NH]C=N1)=NC#N,-1.43,0.15927079926967153,4,G5
C-460,2-mercaptobenzothiazole,"InChI=1S/C7H5NS2/c9-7-8-5-3-1-2-4-6(5)10-7/h1-4H,(H,8,9)",YXIWHUQXZSMYRE-UHFFFAOYSA-N,SC1=NC2=C(S1)C=CC=C2,-3.15,0.4614685255961521,4,G5
C-463,trihexyphenidyl,"InChI=1S/C20H31NO/c22-20(18-10-4-1-5-11-18,19-12-6-2-7-13-19)14-17-21-15-8-3-9-16-21/h1,4-5,10-11,19,22H,2-3,6-9,12-17H2",HWHLPVGTWGOCJO-UHFFFAOYSA-N,OC(CCN1CCCCC1)(C2CCCCC2)C3=CC=CC=C3,-5.2,1.69,2,G2
C-533,caffeine,"InChI=1S/C8H10N4O2/c1-10-4-9-6-5(10)7(13)12(3)8(14)11(6)2/h4H,1-3H3",RYYVLZVUVIJVGH-UHFFFAOYSA-N,C[N]1C=NC2=C1C(=O)N(C)C(=O)N2C,-0.91,0.03564885826310124,4,G5
C-537,methylprednisolone,"InChI=1S/C22H30O5/c1-12-8-14-15-5-7-22(27,18(26)11-23)21(15,3)10-17(25)19(14)20(2)6-4-13(24)9-16(12)20/h4,6,9,12,14-15,17,19,23,25,27H,5,7-8,10-11H2,1-3H3",VHRSUDSXCMQTMA-UHFFFAOYSA-N,CC1CC2C3CCC(O)(C(=O)CO)C3(C)CC(O)C2C4(C)C=CC(=O)C=C14,-3.49,1.3994999106823838,4,G4
C-538,"dinoseb;  2,4-dinitro-6-sec-butylphenol;  2-sec-butyl-4,6-dinitrophenol","InChI=1S/C10H12N2O5/c1-3-6(2)8-4-7(11(14)15)5-9(10(8)13)12(16)17/h4-6,13H,3H2,1-2H3",OWZPCEFYPSAJFR-UHFFFAOYSA-N,CCC(C)C1=C(O)C(=CC(=C1)[N+]([O-])=O)[N+]([O-])=O,-3.67,0.2572705069057594,3,G5
C-569,benzoin,"InChI=1S/C14H12O2/c15-13(11-7-3-1-4-8-11)14(16)12-9-5-2-6-10-12/h1-10,13,15H",ISAOCJYIOMOJEB-UHFFFAOYSA-N,OC(C1=CC=CC=C1)C(=O)C2=CC=CC=C2,-2.85,0.4849999999999999,2,G3
C-575,propranolol,"InChI=1S/C16H21NO2/c1-12(2)17-10-14(18)11-19-16-9-5-7-13-6-3-4-8-15(13)16/h3-9,12,14,17-18H,10-11H2,1-2H3",AQHHHDLHHXJYJD-UHFFFAOYSA-N,CC(C)NCC(O)COC1=CC=CC2=C1C=CC=C2,-3.62,0.2118175315375634,3,G5
C-576,"picric  acid;  2,4,6-trinitrophenol;","InChI=1S/C6H3N3O7/c10-6-4(8(13)14)1-3(7(11)12)2-5(6)9(15)16/h1-2,10H",OXNIZHLAWKMVMX-UHFFFAOYSA-N,OC1=C(C=C(C=C1[N+]([O-])=O)[N+]([O-])=O)[N+]([O-])=O,-1.97,0.6435036044101765,3,G4
C-602,"1,10-phenanthroline",InChI=1S/C12H8N2/c1-3-9-5-6-10-4-2-8-14-12(10)11(9)13-7-1/h1-8H,DGEZNRSVGBDHLK-UHFFFAOYSA-N,C1=CC2=CC=C3C=CC=NC3=C2N=C1,-1.83,0.288790581563873,3,G5
C-665,adenosine,"InChI=1S/C10H13N5O4/c11-8-5-9(13-2-12-8)15(3-14-5)10-7(18)6(17)4(1-16)19-10/h2-4,6-7,10,16-18H,1H2,(H2,11,12,13)",OIRDTQYFTABQOQ-UHFFFAOYSA-N,NC1=NC=NC2=C1N=C[N]2C3OC(CO)C(O)C3O,-1.73,0.04047976845000001,2,G3
C-751,medazepam,"InChI=1S/C16H15ClN2/c1-19-10-9-18-16(12-5-3-2-4-6-12)14-11-13(17)7-8-15(14)19/h2-8,11H,9-10H2,1H3",YLCXGBZIZBEVPZ-UHFFFAOYSA-N,CN1CCN=C(C2=CC=CC=C2)C3=C1C=CC(=C3)Cl,-4.43,0.33499999999999996,2,G3
C-753,carbamazepine,"InChI=1S/C15H12N2O/c16-15(18)17-13-7-3-1-5-11(13)9-10-12-6-2-4-8-14(12)17/h1-10H,(H2,16,18)",FFGPTBGBLSHEPO-UHFFFAOYSA-N,NC(=O)N1C2=C(C=CC=C2)C=CC3=C1C=CC=C3,-3.29,0.1407485069981996,3,G5
C-807,quinine,"InChI=1S/C20H24N2O2/c1-3-13-12-22-9-7-14(13)10-19(22)20(23)16-6-8-21-18-5-4-15(24-2)11-17(16)18/h3-6,8,11,13-14,19-20,23H,1,7,9-10,12H2,2H3",LOUPRKONTZGTKE-UHFFFAOYSA-N,COC1=CC=C2N=CC=C(C(O)C3CC4CCN3CC4C=C)C2=C1,-2.79,0.9173270348620982,3,G4
C-820,ethoxzolamide;  2-sulfamoyl-6-ethoxybenzothiazole; 6-ethoxybenzothiazole-2-sulfonamide,"InChI=1S/C9H10N2O3S2/c1-2-14-6-3-4-7-8(5-6)15-9(11-7)16(10,12)13/h3-5H,2H2,1H3,(H2,10,12,13)",OUZWUKMCLIBBOG-UHFFFAOYSA-N,CCOC1=CC2=C(C=C1)N=C(S2)[S](N)(=O)=O,-4.03,0.2434474618201363,3,G5
C-870,"sulfisomidine;  2,6-dimethyl-4-sulfapyrimidine","InChI=1S/C12H14N4O2S/c1-8-7-12(15-9(2)14-8)16-19(17,18)11-5-3-10(13)4-6-11/h3-7H,13H2,1-2H3,(H,14,15,16)",YZMCKZRAOLZXAZ-UHFFFAOYSA-N,CC1=CC(=NC(=N1)C)N[S](=O)(=O)C2=CC=C(N)C=C2,-2.3,0.03399346342395173,3,G5
C-894,griseofulvin,"InChI=1S/C17H17ClO6/c1-8-5-9(19)6-12(23-4)17(8)16(20)13-10(21-2)7-11(22-3)14(18)15(13)24-17/h6-8H,5H2,1-4H3",DDUHZTYCFQRHIY-UHFFFAOYSA-N,COC1=CC(=C2C(=O)C3(OC2=C1Cl)C(C)CC(=O)C=C3OC)OC,-3.97,0.5835981065767776,4,G4
C-939,3-(acetyloxymethyl)phenytoin,"InChI=1S/C18H16N2O4/c1-13(21)24-12-20-16(22)18(19-17(20)23,14-8-4-2-5-9-14)15-10-6-3-7-11-15/h2-11H,12H2,1H3,(H,19,23)",FBFCVJNZKBVVRP-UHFFFAOYSA-N,CC(=O)OCN1C(=O)NC(C1=O)(C2=CC=CC=C2)C3=CC=CC=C3,-4.47,0.2200000000000002,2,G3
C-959,3-(propanoyloxymethyl)phenytoin,"InChI=1S/C19H18N2O4/c1-2-16(22)25-13-21-17(23)19(20-18(21)24,14-9-5-3-6-10-14)15-11-7-4-8-12-15/h3-12H,2,13H2,1H3,(H,20,24)",FBQTWGHLMQUOQL-UHFFFAOYSA-N,CCC(=O)OCN1C(=O)NC(C1=O)(C2=CC=CC=C2)C3=CC=CC=C3,-4.91,0.08000000000000007,2,G3
C-980,"3-pentanoyloxymethylphenytoin;  5,5-diphenyl-3-pentanoyloxymethylhydantoin","InChI=1S/C21H22N2O4/c1-2-3-14-18(24)27-15-23-19(25)21(22-20(23)26,16-10-6-4-7-11-16)17-12-8-5-9-13-17/h4-13H,2-3,14-15H2,1H3,(H,22,26)",XCEYNQCFXXAOBL-UHFFFAOYSA-N,CCCCC(=O)OCN1C(=O)NC(C1=O)(C2=CC=CC=C2)C3=CC=CC=C3,-4.68,0.605,2,G2
C-1012,alprazolam;  xanax,"InChI=1S/C17H13ClN4/c1-11-20-21-16-10-19-17(12-5-3-2-4-6-12)14-9-13(18)7-8-15(14)22(11)16/h2-9H,10H2,1H3",VREFGVBLTWBCJP-UHFFFAOYSA-N,CC1=NN=C2CN=C(C3=CC=CC=C3)C4=C(C=CC(=C4)Cl)[N]12,-3.6,0.08499999999999996,2,G3
C-1023,triphenyl phosphate;  tpp,"InChI=1S/C18H15O4P/c19-23(20-16-10-4-1-5-11-16,21-17-12-6-2-7-13-17)22-18-14-8-3-9-15-18/h1-15H",XZZNDPSIHUTMOC-UHFFFAOYSA-N,O=[P](OC1=CC=CC=C1)(OC2=CC=CC=C2)OC3=CC=CC=C3,-5.66,0.37705480693487936,5,G5
C-1088,2-aminopyridine,"InChI=1S/C5H6N2/c6-5-3-1-2-4-7-5/h1-4H,(H2,6,7)",ICSNLGPSRYBMBD-UHFFFAOYSA-N,NC1=NC=CC=C1,0.98,0.023165962250000005,2,G3
C-1094,retinol (all-trans);  vitamin a; vitamin a1,"InChI=1S/C20H30O/c1-16(8-6-9-17(2)13-15-21)11-12-19-18(3)10-7-14-20(19,4)5/h6,8-9,11-13,21H,7,10,14-15H2,1-5H3/b9-6+,12-11+,16-8+,17-13+",FPIPGXGPPPQFEQ-OVSJKPMPSA-N,CC(=C\CO)/C=C/C=C(C)/C=C/C1=C(C)CCCC1(C)C,-3.81,1.8235312357499998,2,G2
C-1101,4-chlorophenol,"InChI=1S/C6H5ClO/c7-5-1-3-6(8)4-2-5/h1-4,8H",WXNZTHHGJRFXKQ-UHFFFAOYSA-N,OC1=CC=C(Cl)C=C1,-0.69,0.022762625930755544,5,G5
C-1129,"4-chloro-3,5-dimethylphenol;  4-chloro-3,5-xylenol","InChI=1S/C8H9ClO/c1-5-3-7(10)4-6(2)8(5)9/h3-4,10H,1-2H3",OSDLLIBGSJNGJE-UHFFFAOYSA-N,CC1=C(Cl)C(=CC(=C1)O)C,-2.67,0.19506654527728537,4,G5
C-1140,1-chloro-3-nitrobenzene,InChI=1S/C6H4ClNO2/c7-5-2-1-3-6(4-5)8(9)10/h1-4H,KMAQZIILEGKYQZ-UHFFFAOYSA-N,[O-][N+](=O)C1=CC=CC(=C1)Cl,-2.76,0.07489009605243808,3,G5
C-1278,"n-[2-(benzoyloxy)acetyl]-2,6-dimethylpiperidine","InChI=1S/C16H21NO3/c1-12-7-6-8-13(2)17(12)15(18)11-20-16(19)14-9-4-3-5-10-14/h3-5,9-10,12-13H,6-8,11H2,1-2H3",WJUSVIUZCYELMK-UHFFFAOYSA-N,CC1CCCC(C)N1C(=O)COC(=O)C2=CC=CC=C2,-3.26,1.22,2,G2
C-1285,"2,4,6-trinitrotoluene","InChI=1S/C7H5N3O6/c1-4-6(9(13)14)2-5(8(11)12)3-7(4)10(15)16/h2-3H,1H3",SPSSULHKWOKEEL-UHFFFAOYSA-N,CC1=C(C=C(C=C1[N+]([O-])=O)[N+]([O-])=O)[N+]([O-])=O,-3.24,0.013375830852297514,3,G5
C-1303,n-(benzoyloxyacetyl)prolinamide,"InChI=1S/C14H16N2O4/c15-13(18)11-7-4-8-16(11)12(17)9-20-14(19)10-5-2-1-3-6-10/h1-3,5-6,11H,4,7-9H2,(H2,15,18)",QUIKDFWIKDMXIO-UHFFFAOYSA-N,NC(=O)C1CCCN1C(=O)COC(=O)C2=CC=CC=C2,-2.27,0.61,2,G2
C-1305,"morphine;  7,8-didehydro-4,5-epoxy-17-methylmorphinan-3,6-diol","InChI=1S/C17H19NO3/c1-18-7-6-17-10-3-5-13(20)16(17)21-15-12(19)4-2-9(14(15)17)8-11(10)18/h2-5,10-11,13,16,19-20H,6-8H2,1H3",BQJCRHHNABKAKU-UHFFFAOYSA-N,CN1CCC23C4OC5=C(O)C=CC(=C25)CC1C3C=CC4O,-3.15,0.07586537784494017,3,G5
C-1339,1-amino-2-naphthalenesulfonic  acid,"InChI=1S/C10H9NO3S/c11-10-8-4-2-1-3-7(8)5-6-9(10)15(12,13)14/h1-6H,11H2,(H,12,13,14)",ONZWNZGVZFLMNZ-UHFFFAOYSA-N,NC1=C(C=CC2=C1C=CC=C2)[S](O)(=O)=O,-2.96,0.65,2,G2
C-1538,"camphene;  2,2-dimethyl-3-methylenenorbornane;  2,2-dimethyl-3-methylenebicyclo[2.2.1]heptane","InChI=1S/C10H16/c1-7-8-4-5-9(6-8)10(7,2)3/h8-9H,1,4-6H2,2-3H3",CRPUJAZIXJMDBK-UHFFFAOYSA-N,CC1(C)C2CCC(C2)C1=C,-4.47,0.02052448455000011,2,G3
C-1547,1-hexadecanol;  cetyl  alcohol,"InChI=1S/C16H34O/c1-2-3-4-5-6-7-8-9-10-11-12-13-14-15-16-17/h17H,2-16H2,1H3",BXWNKGSJHAJOGX-UHFFFAOYSA-N,CCCCCCCCCCCCCCCCO,-6.77,0.6598968274133019,6,G4
C-1586,heptadecanoic acid;  margaric acid,"InChI=1S/C17H34O2/c1-2-3-4-5-6-7-8-9-10-11-12-13-14-15-16-17(18)19/h2-16H2,1H3,(H,18,19)",KEMQGTRYUADPNZ-UHFFFAOYSA-N,CCCCCCCCCCCCCCCCC(O)=O,-4.69,0.4784358890000002,2,G3
C-1591,"sebacic  acid;  decanedioic  acid;  1,8-octanedicarboxylic acid","InChI=1S/C10H18O4/c11-9(12)7-5-3-1-2-4-6-8-10(13)14/h1-8H2,(H,11,12)(H,13,14)",CXMXRPHRNRROMY-UHFFFAOYSA-N,OC(=O)CCCCCCCCC(O)=O,-2.31,0.32282025599999997,2,G3
C-1592,stearic  acid;  octadecanoic  acid,"InChI=1S/C18H36O2/c1-2-3-4-5-6-7-8-9-10-11-12-13-14-15-16-17-18(19)20/h2-17H2,1H3,(H,19,20)",QIQXTHQIDYTFRH-UHFFFAOYSA-N,CCCCCCCCCCCCCCCCCC(O)=O,-4.98,0.8811907552536216,4,G4
C-1602,dodecanedioic  acid,"InChI=1S/C12H22O4/c13-11(14)9-7-5-3-1-2-4-6-8-10-12(15)16/h1-10H2,(H,13,14)(H,15,16)",TVIDDXQYHWJXFK-UHFFFAOYSA-N,OC(=O)CCCCCCCCCCC(O)=O,-3.76,0.6332285605490432,5,G4
C-1605,"1,11-undecanedicarboxylic acid;  tridecanedioic  acid;  brassylic  acid","InChI=1S/C13H24O4/c14-12(15)10-8-6-4-2-1-3-5-7-9-11-13(16)17/h1-11H2,(H,14,15)(H,16,17)",DXNCZXXFRKPEPY-UHFFFAOYSA-N,OC(=O)CCCCCCCCCCCC(O)=O,-3.79,0.9157119690333501,3,G4
C-1649,"4-(1,1-dimethyl)propylphenol;  4-tert-amylphenol;  4-tert-pentylphenol","InChI=1S/C11H16O/c1-4-11(2,3)9-5-7-10(12)8-6-9/h5-8,12H,4H2,1-3H3",NRZWYNLTFLDQQX-UHFFFAOYSA-N,CCC(C)(C)C1=CC=C(O)C=C1,-2.99,0.026626755500000154,2,G3
C-1806,"chelidonic acid; 4-oxo-4h-pyran-2,6-dicarboxylic acid","InChI=1S/C7H4O6/c8-3-1-4(6(9)10)13-5(2-3)7(11)12/h1-2H,(H,9,10)(H,11,12)",PBAYDYUZOSNJGU-UHFFFAOYSA-N,OC(=O)C1=CC(=O)C=C(O1)C(O)=O,-1.11,0.0050000000000000044,2,G3
C-1832,4-aminotoluene-2-sulfonic acid,"InChI=1S/C7H9NO3S/c1-5-2-3-6(8)4-7(5)12(9,10)11/h2-4H,8H2,1H3,(H,9,10,11)",BRKFTWHPLMMNHF-UHFFFAOYSA-N,CC1=C(C=C(N)C=C1)[S](O)(=O)=O,-1.62,0.1985398679000001,2,G3
C-1881,7-dimethylaminopteridine,"InChI=1S/C8H9N5/c1-13(2)7-4-10-6-3-9-5-11-8(6)12-7/h3-5H,1-2H3",MPTKEBUBIGZGJH-UHFFFAOYSA-N,CN(C)C1=NC2=C(C=NC=N2)N=C1,-0.09,0.034999999999999996,2,G3
C-1889,4-dimethylaminopteridine,"InChI=1S/C8H9N5/c1-13(2)8-6-7(11-5-12-8)10-4-3-9-6/h3-5H,1-2H3",KXQWQYBKUMVBIB-UHFFFAOYSA-N,CN(C)C1=NC=NC2=C1N=CC=N2,-1.03,0.0050000000000000044,2,G3
C-1914,"2,6,7-trimethylpteridine","InChI=1S/C9H10N4/c1-5-6(2)12-9-8(11-5)4-10-7(3)13-9/h4H,1-3H3",ZGWOCNDIGLJDDX-UHFFFAOYSA-N,CC1=NC2=C(C=N1)N=C(C)C(=N2)C,-1.15,0.0050000000000000044,2,G3
C-1920,(n-methyl)acetylaminocarbonylmethyl  benzoate,"InChI=1S/C12H13NO4/c1-9(14)13(2)11(15)8-17-12(16)10-6-4-3-5-7-10/h3-7H,8H2,1-2H3",JQUIGGQYRQVIIE-UHFFFAOYSA-N,CN(C(C)=O)C(=O)COC(=O)C1=CC=CC=C1,-2.87,1.185,2,G2
C-1925,"2-benzoyloxy-n,n-(diethyl)propionamide;  2-benzoyloxy-n,n-(diethyl)propanoic acid amide","InChI=1S/C14H19NO3/c1-4-15(5-2)13(16)11(3)18-14(17)12-9-7-6-8-10-12/h6-11H,4-5H2,1-3H3",BZZFPIRKNVWTKJ-UHFFFAOYSA-N,CCN(CC)C(=O)C(C)OC(=O)C1=CC=CC=C1,-2.28,0.08999999999999986,2,G3
C-1942,"6,7-diethylpteridine","InChI=1S/C10H12N4/c1-3-7-8(4-2)14-10-9(13-7)5-11-6-12-10/h5-6H,3-4H2,1-2H3",ULZKCUXGSDTDQB-UHFFFAOYSA-N,CCC1=NC2=C(N=CN=C2)N=C1CC,-0.18,0.03,2,G3
C-2037,"6,7-diethyl-1h-pteridine-2,4-dione;  ""2,4-dihydroxy-6,7-diethylpteridine""","InChI=1S/C10H12N4O2/c1-3-5-6(4-2)12-8-7(11-5)9(15)14-10(16)13-8/h3-4H2,1-2H3,(H2,12,13,14,15,16)",PNLRJGYHLCFMLM-UHFFFAOYSA-N,CCC1=NC2=C(N=C1CC)C(=O)NC(=O)N2,-2.39,0.0050000000000001155,2,G3
C-2240,3-(hydroxymethyl)phenytoin,"InChI=1S/C16H14N2O3/c19-11-18-14(20)16(17-15(18)21,12-7-3-1-4-8-12)13-9-5-2-6-10-13/h1-10,19H,11H2,(H,17,21)",QQBKLRXLVRDKEB-UHFFFAOYSA-N,OCN1C(=O)NC(C1=O)(C2=CC=CC=C2)C3=CC=CC=C3,-3.3,0.585,2,G2
C-2484,alpha-cyclodextrin;  alfadex,"InChI=1S/C36H60O30/c37-1-7-25-13(43)19(49)31(55-7)62-26-8(2-38)57-33(21(51)15(26)45)64-28-10(4-40)59-35(23(53)17(28)47)66-30-12(6-42)60-36(24(54)18(30)48)65-29-11(5-41)58-34(22(52)16(29)46)63-27-9(3-39)56-32(61-25)20(50)14(27)44/h7-54H,1-6H2",HFHDHCJBZVLPGP-UHFFFAOYSA-N,OCC1OC2OC3C(O)C(O)C(OC3CO)OC4C(O)C(O)C(OC4CO)OC5C(O)C(O)C(OC5CO)OC6C(O)C(O)C(OC6CO)OC7C(O)C(O)C(OC7CO)OC1C(O)C2O,-0.91,0.01773429255000003,2,G3
C-2557,beta-cyclodextrin;  betadex,"InChI=1S/C42H70O35/c43-1-8-29-15(50)22(57)36(64-8)72-30-9(2-44)66-38(24(59)17(30)52)74-32-11(4-46)68-40(26(61)19(32)54)76-34-13(6-48)70-42(28(63)21(34)56)77-35-14(7-49)69-41(27(62)20(35)55)75-33-12(5-47)67-39(25(60)18(33)53)73-31-10(3-45)65-37(71-29)23(58)16(31)51/h8-63H,1-7H2",WHGYBXFWUBPSRW-UHFFFAOYSA-N,OCC1OC2OC3C(O)C(O)C(OC3CO)OC4C(O)C(O)C(OC4CO)OC5C(O)C(O)C(OC5CO)OC6C(O)C(O)C(OC6CO)OC7C(O)C(O)C(OC7CO)OC8C(O)C(O)C(OC8CO)OC1C(O)C2O,-1.84,0.029827424850000006,2,G3
C-2575,gamma-cyclodextrin,"InChI=1S/C48H80O40/c49-1-9-33-17(57)25(65)41(73-9)82-34-10(2-50)75-43(27(67)19(34)59)84-36-12(4-52)77-45(29(69)21(36)61)86-38-14(6-54)79-47(31(71)23(38)63)88-40-16(8-56)80-48(32(72)24(40)64)87-39-15(7-55)78-46(30(70)22(39)62)85-37-13(5-53)76-44(28(68)20(37)60)83-35-11(3-51)74-42(81-33)26(66)18(35)58/h9-72H,1-8H2",GDSRMADSINPKSL-UHFFFAOYSA-N,OCC1OC2OC3C(O)C(O)C(OC3CO)OC4C(O)C(O)C(OC4CO)OC5C(O)C(O)C(OC5CO)OC6C(O)C(O)C(OC6CO)OC7C(O)C(O)C(OC7CO)OC8C(O)C(O)C(OC8CO)OC9C(O)C(O)C(OC9CO)OC1C(O)C2O,-0.75,0.05373456069999999,2,G3
D-6,n-butane,"InChI=1S/C4H10/c1-3-4-2/h3-4H2,1-2H3",IJDNQMDRQITEOD-UHFFFAOYSA-N,CCCC,-2.978,0.2567870232257295,5,G5
D-24,methyl iodide,InChI=1S/CH3I/c1-2/h1H3,INQOMBQAUSQDDS-UHFFFAOYSA-N,CI,-1.012,0.09844933513356938,3,G5
D-34,"1,1-difluoroethane","InChI=1S/C2H4F2/c1-2(3)4/h2H,1H3",NPNPZTNLOVBDOC-UHFFFAOYSA-N,CC(F)F,-1.315,0.028857395300000088,2,G3
D-37,trifluoromethane,InChI=1S/CHF3/c2-1(3)4/h1H,XPDWGBQVDMORPB-UHFFFAOYSA-N,FC(F)F,-1.2329999999999999,0.3444673343000001,2,G3
D-82,"1,1-difluoroethene",InChI=1S/C2H2F2/c1-2(3)4/h1H2,BQCIDUSAKPWEOX-UHFFFAOYSA-N,FC(F)=C,-0.706,0.94146334375,2,G2
D-100,dimethoxymethane,"InChI=1S/C3H8O2/c1-4-3-5-2/h3H2,1-2H3",NKDDWNXOKDWJAK-UHFFFAOYSA-N,COCOC,0.506,0.06878061198829367,3,G5