ID,Name,InChI,InChIKey,SMILES,Solubility,SD,Occurrences,Group
C-2310,"5-[(n,n-dimethylaminosulfonyl)imido]-4-methyl-2-aminosulfonyl-1,3,4-thiadiazoline","InChI=1S/C5H11N5O4S3/c1-9(2)17(13,14)8-4-10(3)7-5(15-4)16(6,11)12/h1-3H3,(H2,6,11,12)",IXUHQPKKIHYXSU-UHFFFAOYSA-N,CN(C)[S](=O)(=O)N=C1SC(=NN1C)[S](N)(=O)=O,-2.7,0.0,1,G1
C-2311,"2,2',3,4',5,5'-hexachlorodiphenyl  ether",InChI=1S/C12H4Cl6O/c13-5-1-9(17)12(18)11(2-5)19-10-4-7(15)6(14)3-8(10)16/h1-4H,SFTBUGPDOJDENF-UHFFFAOYSA-N,ClC1=CC(=C(Cl)C(=C1)Cl)OC2=CC(=C(Cl)C=C2Cl)Cl,-8.41,0.0,1,G1
C-2312,phenisopham,"InChI=1S/C19H22N2O4/c1-4-21(16-10-6-5-7-11-16)19(23)25-17-12-8-9-15(13-17)20-18(22)24-14(2)3/h5-14H,4H2,1-3H3,(H,20,22)",PWEOEHNGYFXZLI-UHFFFAOYSA-N,CCN(C(=O)OC1=CC=CC(=C1)NC(=O)OC(C)C)C2=CC=CC=C2,-5.06,0.0,1,G1
C-2313,"2,2',3,3',4,5'-hexachlorodiphenyl  ether",InChI=1S/C12H4Cl6O/c13-5-3-7(15)10(16)9(4-5)19-8-2-1-6(14)11(17)12(8)18/h1-4H,JTEWACHFMNTRBB-UHFFFAOYSA-N,ClC1=CC(=C(Cl)C(=C1)OC2=C(Cl)C(=C(Cl)C=C2)Cl)Cl,-8.55,0.0,1,G1
C-2314,naproanilide,"InChI=1S/C19H17NO2/c1-14(19(21)20-17-9-3-2-4-10-17)22-18-12-11-15-7-5-6-8-16(15)13-18/h2-14H,1H3,(H,20,21)",LVKTWOXHRYGDMM-UHFFFAOYSA-N,CC(OC1=CC2=CC=CC=C2C=C1)C(=O)NC3=CC=CC=C3,-5.59,0.0,1,G1
C-2315,"2,3,3',4',5,6-hexachlorodiphenyl  ether",InChI=1S/C12H4Cl6O/c13-6-2-1-5(3-7(6)14)19-12-10(17)8(15)4-9(16)11(12)18/h1-4H,YLAYOOJLJKJGCF-UHFFFAOYSA-N,ClC1=CC=C(OC2=C(Cl)C(=CC(=C2Cl)Cl)Cl)C=C1Cl,-8.3,0.0,1,G1
C-2316,"2,2',3,4,4',6-hexachlorodiphenyl  ether",InChI=1S/C12H4Cl6O/c13-5-1-2-9(6(14)3-5)19-12-8(16)4-7(15)10(17)11(12)18/h1-4H,BIWCEXHDIQZFHI-UHFFFAOYSA-N,ClC1=CC(=C(OC2=C(Cl)C(=C(Cl)C=C2Cl)Cl)C=C1)Cl,-8.47,0.0,1,G1
C-2317,n-(5-ethoxycarbonylpyridin-2-yl)benzenesulfonamide,"InChI=1S/C14H14N2O4S/c1-2-20-14(17)11-8-9-13(15-10-11)16-21(18,19)12-6-4-3-5-7-12/h3-10H,2H2,1H3,(H,15,16)",OPJMLVHGUKLBMN-UHFFFAOYSA-N,CCOC(=O)C1=CN=C(N[S](=O)(=O)C2=CC=CC=C2)C=C1,-4.24,0.0,1,G1
C-2318,n-benzoyl-o-acetyl-l-tyrosinamide,"InChI=1S/C18H18N2O4/c1-12(21)24-15-9-7-13(8-10-15)11-16(17(19)22)20-18(23)14-5-3-2-4-6-14/h2-10,16H,11H2,1H3,(H2,19,22)(H,20,23)",QJGVNUOLWAHMIO-UHFFFAOYSA-N,CC(=O)OC1=CC=C(CC(NC(=O)C2=CC=CC=C2)C(N)=O)C=C1,-3.89,0.0,1,G1
C-2319,"2,2',3,4',5',6-hexachlorodiphenyl  ether",InChI=1S/C12H4Cl6O/c13-5-1-2-6(14)12(11(5)18)19-10-4-8(16)7(15)3-9(10)17/h1-4H,RDKSFIZNZGWNLA-UHFFFAOYSA-N,ClC1=CC=C(Cl)C(=C1Cl)OC2=C(Cl)C=C(Cl)C(=C2)Cl,-7.88,0.0,1,G1
C-2321,"3-[2-(n-methylguanidino)-acetylamino]-n-(5-sulfamoyl-[1,3,4]thiadiazol-2-yl)propionamide","InChI=1S/C9H16N8O4S2/c1-17(7(10)11)4-6(19)13-3-2-5(18)14-8-15-16-9(22-8)23(12,20)21/h2-4H2,1H3,(H3,10,11)(H,13,19)(H2,12,20,21)(H,14,15,18)",DCHWBJNKHKXUAM-UHFFFAOYSA-N,CN(CC(=O)NCCC(=O)NC1=NN=C(S1)[S](N)(=O)=O)C(N)=N,-1.13,0.0,1,G1
C-2322,8-styryltheophylline,"InChI=1S/C15H14N4O2/c1-18-13-12(14(20)19(2)15(18)21)16-11(17-13)9-8-10-6-4-3-5-7-10/h3-9H,1-2H3,(H,16,17)/b9-8+",BTFAUMMRKLKUJP-CMDGGOBGSA-N,CN1C(=O)N(C)C2=C([NH]C(=N2)\C=C\C3=CC=CC=C3)C1=O,-6.66,0.0,1,G1
C-2323,"2,2',3,4',5,6-hexachlorodiphenyl  ether",InChI=1S/C12H4Cl6O/c13-5-1-2-9(6(14)3-5)19-12-10(17)7(15)4-8(16)11(12)18/h1-4H,DIBYIHMYEPMGKC-UHFFFAOYSA-N,ClC1=CC(=C(OC2=C(Cl)C(=CC(=C2Cl)Cl)Cl)C=C1)Cl,-8.42,0.0,1,G1
C-2324,"2,2',3,3',4,6'-hexachlorodiphenyl  ether",InChI=1S/C12H4Cl6O/c13-5-3-4-8(11(18)9(5)16)19-12-7(15)2-1-6(14)10(12)17/h1-4H,YDVYLSIVXYLBBX-UHFFFAOYSA-N,ClC1=C(Cl)C(=C(OC2=C(Cl)C=CC(=C2Cl)Cl)C=C1)Cl,-7.96,0.0,1,G1
C-2325,iopanoic acid,"InChI=1S/C11H12I3NO2/c1-2-5(11(16)17)3-6-7(12)4-8(13)10(15)9(6)14/h4-5H,2-3,15H2,1H3,(H,16,17)",OIRFJRBSRORBCM-UHFFFAOYSA-N,CCC(CC1=C(I)C(=C(I)C=C1I)N)C(O)=O,-4.58,0.0,1,G1
C-2326,methazolamide analog a14,"InChI=1S/C4H5F3N4O4S3/c1-11-2(10-18(14,15)4(5,6)7)16-3(9-11)17(8,12)13/h1H3,(H2,8,12,13)",TUDRWVDXIQKGIO-UHFFFAOYSA-N,CN1N=C(SC1=N[S](=O)(=O)C(F)(F)F)[S](N)(=O)=O,-1.16,0.0,1,G1
C-2327,"nitralin;  planavin;  2,6-dinitro-4-methylsulfonyl-n,n-dipropylaniline","InChI=1S/C13H19N3O6S/c1-4-6-14(7-5-2)13-11(15(17)18)8-10(23(3,21)22)9-12(13)16(19)20/h8-9H,4-7H2,1-3H3",UMKANAFDOQQUKE-UHFFFAOYSA-N,CCCN(CCC)C1=C(C=C(C=C1[N+]([O-])=O)[S](C)(=O)=O)[N+]([O-])=O,-5.76,0.0,1,G1
C-2328,"1-methyl-1,2-benzanthracene;  1-methylbenz[a]anthracene","InChI=1S/C19H14/c1-13-5-4-8-14-9-10-17-11-15-6-2-3-7-16(15)12-18(17)19(13)14/h2-12H,1H3",MWMBCXXTFFHALK-UHFFFAOYSA-N,CC1=CC=CC2=C1C3=CC4=CC=CC=C4C=C3C=C2,-6.64,0.0,1,G1
C-2329,8-phenylcaffeine,"InChI=1S/C14H14N4O2/c1-16-10-12(17(2)14(20)18(3)13(10)19)15-11(16)9-7-5-4-6-8-9/h4-8H,1-3H3",MBYIBRUTNFFDFL-UHFFFAOYSA-N,CN1C(=O)N(C)C2=C([N](C)C(=N2)C3=CC=CC=C3)C1=O,-3.31,0.0,1,G1
C-2330,nitrofuranylamide derivative (lee 952);  n-methyl-n-[4-(2-morpholin-4-ylethoxy)benzyl]-5-nitro-2-furamide,"InChI=1S/C19H23N3O6/c1-20(19(23)17-6-7-18(28-17)22(24)25)14-15-2-4-16(5-3-15)27-13-10-21-8-11-26-12-9-21/h2-7H,8-14H2,1H3",OWPRYUHHSFTVHN-UHFFFAOYSA-N,CN(CC1=CC=C(OCCN2CCOCC2)C=C1)C(=O)C3=CC=C(O3)[N+]([O-])=O,-2.29,0.0,1,G1
C-2332,n1-(1-allyl-2-oxopyrimidin-4-yl)sulfanilamide;  1-allyl-4-sulfapyrimidin-2-one,"InChI=1S/C13H14N4O3S/c1-2-8-17-9-7-12(15-13(17)18)16-21(19,20)11-5-3-10(14)4-6-11/h2-7,9H,1,8,14H2,(H,15,16,18)",VIAUKNFHMJPBHP-UHFFFAOYSA-N,NC1=CC=C(C=C1)[S](=O)(=O)NC2=NC(=O)N(CC=C)C=C2,-3.11,0.0,1,G1
C-2333,"12-methyl-1,2-benzanthracene;  12-methylbenz[a]anthracene","InChI=1S/C19H14/c1-13-17-8-4-3-7-15(17)12-16-11-10-14-6-2-5-9-18(14)19(13)16/h2-12H,1H3",ACYOLKMEHHTLAB-UHFFFAOYSA-N,CC1=C2C(=CC3=CC=CC=C13)C=CC4=C2C=CC=C4,-6.57,0.0,1,G1
C-2334,2-(n4-acetyl)sulfathiazole,"InChI=1S/C11H11N3O3S2/c1-8(15)13-9-2-4-10(5-3-9)19(16,17)14-11-12-6-7-18-11/h2-7H,1H3,(H,12,14)(H,13,15)",KXNXWINFSDKMHD-UHFFFAOYSA-N,CC(=O)NC1=CC=C(C=C1)[S](=O)(=O)NC2=NC=CS2,-3.43,0.0,1,G1
C-2335,n1-(1-isopropyl-2-oxopyrimidin-4-yl)sulfanilamide;  1-isopropyl-4-sulfapyrimidin-2-one,"InChI=1S/C13H16N4O3S/c1-9(2)17-8-7-12(15-13(17)18)16-21(19,20)11-5-3-10(14)4-6-11/h3-9H,14H2,1-2H3,(H,15,16,18)",LRUSAJDEBDJPKV-UHFFFAOYSA-N,CC(C)N1C=CC(=NC1=O)N[S](=O)(=O)C2=CC=C(N)C=C2,-3.17,0.0,1,G1
C-2336,6-methylchrysene,"InChI=1S/C19H14/c1-13-12-19-16-8-3-2-6-14(16)10-11-18(19)17-9-5-4-7-15(13)17/h2-12H,1H3",ASVDRLYVNFOSCI-UHFFFAOYSA-N,CC1=CC2=C(C=CC3=CC=CC=C23)C4=C1C=CC=C4,-6.57,0.0,1,G1
C-2337,5-methylchrysene,"InChI=1S/C19H14/c1-13-12-15-7-3-4-8-16(15)18-11-10-14-6-2-5-9-17(14)19(13)18/h2-12H,1H3",GOHBXWHNJHENRX-UHFFFAOYSA-N,CC1=CC2=C(C=CC=C2)C3=C1C4=CC=CC=C4C=C3,-6.59,0.0,1,G1
C-2339,"entacapone analog (2a);  (e)-2-cyano-n,n-diethyl-3-[3-n-ethylcarbamoyloxy-4-hydroxy-5-nitrophenyl]propenamide","InChI=1S/C17H20N4O6/c1-4-19-17(24)27-14-9-11(8-13(15(14)22)21(25)26)7-12(10-18)16(23)20(5-2)6-3/h7-9,22H,4-6H2,1-3H3,(H,19,24)/b12-7-",HVMGUPMFFCLQNI-GHXNOFRVSA-N,CCNC(=O)OC1=C(O)C(=CC(=C1)\C=C(C#N)/C(=O)N(CC)CC)[N+]([O-])=O,-3.18,0.0,1,G1
C-2340,pyridate,"InChI=1S/C19H23ClN2O2S/c1-2-3-4-5-6-10-13-25-19(23)24-16-14-17(20)21-22-18(16)15-11-8-7-9-12-15/h7-9,11-12,14H,2-6,10,13H2,1H3",JTZCTMAVMHRNTR-UHFFFAOYSA-N,CCCCCCCCSC(=O)OC1=C(N=NC(=C1)Cl)C2=CC=CC=C2,-5.4,0.0,1,G1
C-2341,"s6,9-bis(pentanoyloxymethyl)-6-mercaptopurine; 9-(pentanoyloxymethyl)-6-(pentanoyloxymethylthio)purine","InChI=1S/C17H24N4O4S/c1-3-5-7-13(22)24-11-21-10-20-15-16(21)18-9-19-17(15)26-12-25-14(23)8-6-4-2/h9-10H,3-8,11-12H2,1-2H3",RIVOAEXQOBGQPO-UHFFFAOYSA-N,CCCCC(=O)OCSC1=NC=NC2=C1N=C[N]2COC(=O)CCCC,-4.33,0.0,1,G1
C-2342,triamiphos,"InChI=1S/C12H19N6OP/c1-16(2)20(19,17(3)4)18-12(13)14-11(15-18)10-8-6-5-7-9-10/h5-9H,1-4H3,(H2,13,14,15)",BABJTMNVJXLAEX-UHFFFAOYSA-N,CN(C)[P](=O)(N(C)C)[N]1N=C(N=C1N)C2=CC=CC=C2,-3.07,0.0,1,G1
C-2343,4-nitro-n-(4-methoxyphenyl)benzenesulfonamide;  1-(4-nitrophenylsulfonamido)-4-methoxybenzene,"InChI=1S/C13H12N2O5S/c1-20-12-6-2-10(3-7-12)14-21(18,19)13-8-4-11(5-9-13)15(16)17/h2-9,14H,1H3",PGNXXIOBJLPXFL-UHFFFAOYSA-N,COC1=CC=C(N[S](=O)(=O)C2=CC=C(C=C2)[N+]([O-])=O)C=C1,-4.64,0.0,1,G1
C-2344,amoxicillin,"InChI=1S/C16H19N3O5S/c1-16(2)11(15(23)24)19-13(22)10(14(19)25-16)18-12(21)9(17)7-3-5-8(20)6-4-7/h3-6,9-11,14,20H,17H2,1-2H3,(H,18,21)(H,23,24)",LSQZJLSUYDQPKJ-UHFFFAOYSA-N,CC1(C)SC2C(NC(=O)C(N)C3=CC=C(O)C=C3)C(=O)N2C1C(O)=O,-2.17,0.0,1,G1
C-2345,"1,3-dipropyl-8-(3-noradamantyl)xanthine","InChI=1S/C20H28N4O2/c1-3-5-23-16-15(17(25)24(6-4-2)19(23)26)21-18(22-16)20-10-12-7-13(11-20)9-14(20)8-12/h12-14H,3-11H2,1-2H3,(H,21,22)",PJBFVWGQFLYWCB-UHFFFAOYSA-N,CCCN1C(=O)N(CCC)C2=C([NH]C(=N2)[C]34CC5[CH2]C(C[CH]3C5)C4)C1=O,-5.85,0.0,1,G1
C-2346,"4-(4-bromo-2-fluorophenylamino)-5-fluoro-1-methyl-6-oxo-1,6-dihydropyridine-3-carboxamide","InChI=1S/C13H10BrF2N3O2/c1-19-5-7(12(17)20)11(10(16)13(19)21)18-9-3-2-6(14)4-8(9)15/h2-5,18H,1H3,(H2,17,20)",LNCZLEZOTUBASE-UHFFFAOYSA-N,CN1C=C(C(N)=O)C(=C(F)C1=O)NC2=C(F)C=C(Br)C=C2,-4.14,0.0,1,G1
C-2347,"naproxen,  derivat 3b","InChI=1S/C22H29NO5/c1-14(2)11-20(23)22(25)28-10-9-27-21(24)15(3)16-5-6-18-13-19(26-4)8-7-17(18)12-16/h5-8,12-15,20H,9-11,23H2,1-4H3",GVNYQGKVULMAET-UHFFFAOYSA-N,COC1=CC=C2C=C(C=CC2=C1)C(C)C(=O)OCCOC(=O)C(N)CC(C)C,-3.82,0.0,1,G1
C-2348,n1-(1-butyl-2-oxopyrimidin-4-yl)sulfanilamide;  1-butyl-4-sulfapyrimidin-2-one,"InChI=1S/C14H18N4O3S/c1-2-3-9-18-10-8-13(16-14(18)19)17-22(20,21)12-6-4-11(15)5-7-12/h4-8,10H,2-3,9,15H2,1H3,(H,16,17,19)",YLHKVSOBVLMBIT-UHFFFAOYSA-N,CCCCN1C=CC(=NC1=O)N[S](=O)(=O)C2=CC=C(N)C=C2,-3.09,0.0,1,G1
C-2349,"naproxen,  derivat 3c","InChI=1S/C22H29NO5/c1-5-14(2)20(23)22(25)28-11-10-27-21(24)15(3)16-6-7-18-13-19(26-4)9-8-17(18)12-16/h6-9,12-15,20H,5,10-11,23H2,1-4H3",ZNNNHDSEKOSIMH-UHFFFAOYSA-N,CCC(C)C(N)C(=O)OCCOC(=O)C(C)C1=CC2=CC=C(OC)C=C2C=C1,-3.82,0.0,1,G1
C-2350,"1-(2,6-difluorophenyl)-1h,3h-thiazolo[3,4-a]benzimidazole;  nsc 625487","InChI=1S/C15H10F2N2S/c16-9-4-3-5-10(17)14(9)15-19-12-7-2-1-6-11(12)18-13(19)8-20-15/h1-7,15H,8H2",AMLBAOPYPUXEQF-UHFFFAOYSA-N,FC1=C(C2SCC3=NC4=C(C=CC=C4)[N]23)C(=CC=C1)F,-3.76,0.0,1,G1
C-2351,"theophyllin-7-ylmethyl 3-(n,n-diethylcarbamoyl)propionate; n,n-diethylsuccinamic acid theophyllin-7-ylmethyl ester","InChI=1S/C16H23N5O5/c1-5-20(6-2)11(22)7-8-12(23)26-10-21-9-17-14-13(21)15(24)19(4)16(25)18(14)3/h9H,5-8,10H2,1-4H3",GEUZJBMJDHYJEC-UHFFFAOYSA-N,CCN(CC)C(=O)CCC(=O)OC[N]1C=NC2=C1C(=O)N(C)C(=O)N2C,-1.14,0.0,1,G1
C-2353,dithiopyr,"InChI=1S/C15H16F5NO2S2/c1-6(2)5-7-8(13(22)24-3)10(12(16)17)21-11(15(18,19)20)9(7)14(23)25-4/h6,12H,5H2,1-4H3",YUBJPYNSGLJZPQ-UHFFFAOYSA-N,CSC(=O)C1=C(CC(C)C)C(=C(N=C1C(F)F)C(F)(F)F)C(=O)SC,-5.46,0.0,1,G1
C-2354,n1-(1-isobutyl-2-oxopyrimidin-4-yl)sulfanilamide;  1-isobutyl-4-sulfapyrimidin-2-one,"InChI=1S/C14H18N4O3S/c1-10(2)9-18-8-7-13(16-14(18)19)17-22(20,21)12-5-3-11(15)4-6-12/h3-8,10H,9,15H2,1-2H3,(H,16,17,19)",IMPWCIFPLYQYLB-UHFFFAOYSA-N,CC(C)CN1C=CC(=NC1=O)N[S](=O)(=O)C2=CC=C(N)C=C2,-3.11,0.0,1,G1
C-2355,3-benzoyl-1-butanoyloxymethyl-5-fluorouracil,"InChI=1S/C16H15FN2O5/c1-2-6-13(20)24-10-18-9-12(17)15(22)19(16(18)23)14(21)11-7-4-3-5-8-11/h3-5,7-9H,2,6,10H2,1H3",WJZCANSESVPVMM-UHFFFAOYSA-N,CCCC(=O)OCN1C=C(F)C(=O)N(C1=O)C(=O)C2=CC=CC=C2,-3.73,0.0,1,G1
C-2356,amifloxacin,"InChI=1S/C16H19FN4O3/c1-18-21-9-11(16(23)24)15(22)10-7-12(17)14(8-13(10)21)20-5-3-19(2)4-6-20/h7-9,18H,3-6H2,1-2H3,(H,23,24)",RUXPNBWPIRDVTH-UHFFFAOYSA-N,CNN1C=C(C(O)=O)C(=O)C2=C1C=C(N3CCN(C)CC3)C(=C2)F,-3.73,0.0,1,G1
C-2357,"2,3,3',4,4',5',6-heptachlorobiphenyl",InChI=1S/C12H3Cl7/c13-5-3-8(16)11(18)12(19)9(5)4-1-6(14)10(17)7(15)2-4/h1-3H,TVFXBXWAXIMLAQ-UHFFFAOYSA-N,ClC1=C(Cl)C(=C(C(=C1)Cl)C2=CC(=C(Cl)C(=C2)Cl)Cl)Cl,-9.1,0.0,1,G1
C-2358,"6-(2,2-dimethylpropanoyloxy)-2-sulfamoylbenzothiazole","InChI=1S/C12H14N2O4S2/c1-12(2,3)10(15)18-7-4-5-8-9(6-7)19-11(14-8)20(13,16)17/h4-6H,1-3H3,(H2,13,16,17)",FAZPZNCEAZRGPY-UHFFFAOYSA-N,CC(C)(C)C(=O)OC1=CC2=C(C=C1)N=C(S2)[S](N)(=O)=O,-3.73,0.0,1,G1
C-2359,n1-(1-sec-butyl-2-oxopyrimidin-4-yl)sulfanilamide;  1-sec-butyl-4-sulfapyrimidin-2-one,"InChI=1S/C14H18N4O3S/c1-3-10(2)18-9-8-13(16-14(18)19)17-22(20,21)12-6-4-11(15)5-7-12/h4-10H,3,15H2,1-2H3,(H,16,17,19)",VUVSIYGODRCZRX-UHFFFAOYSA-N,CCC(C)N1C=CC(=NC1=O)N[S](=O)(=O)C2=CC=C(N)C=C2,-2.76,0.0,1,G1
C-2360,"2,2',3,3',4,4',5-heptachlorobiphenyl",InChI=1S/C12H3Cl7/c13-6-2-1-4(8(15)10(6)17)5-3-7(14)11(18)12(19)9(5)16/h1-3H,RMPWIIKNWPVWNG-UHFFFAOYSA-N,ClC1=CC=C(C(=C1Cl)Cl)C2=C(Cl)C(=C(Cl)C(=C2)Cl)Cl,-8.06,0.0,1,G1
C-2361,"naproxen,  ester 3a","InChI=1S/C22H27NO6/c1-16(17-3-4-19-14-20(26-2)6-5-18(19)13-17)22(25)29-12-11-28-21(24)15-23-7-9-27-10-8-23/h3-6,13-14,16H,7-12,15H2,1-2H3",FFWGHEZSBSOVRZ-UHFFFAOYSA-N,COC1=CC2=CC=C(C=C2C=C1)C(C)C(=O)OCCOC(=O)CN3CCOCC3,-4.3,0.0,1,G1
C-2362,"2,3,3',4,4',5,6-heptachlorobiphenyl",InChI=1S/C12H3Cl7/c13-5-2-1-4(3-6(5)14)7-8(15)10(17)12(19)11(18)9(7)16/h1-3H,TYEDCFVCFDKSBK-UHFFFAOYSA-N,ClC1=CC=C(C=C1Cl)C2=C(Cl)C(=C(Cl)C(=C2Cl)Cl)Cl,-8.9,0.0,1,G1
C-2363,"2,3,3',4',5,5',6-heptachlorobiphenyl",InChI=1S/C12H3Cl7/c13-5-1-4(2-6(14)10(5)17)9-11(18)7(15)3-8(16)12(9)19/h1-3H,SSTJUBQGYXNFFP-UHFFFAOYSA-N,ClC1=CC(=C(Cl)C(=C1Cl)C2=CC(=C(Cl)C(=C2)Cl)Cl)Cl,-9.1,0.0,1,G1
C-2364,mitomycin c n-propoxycarbonyl derivative,"InChI=1S/C19H24N4O7/c1-4-5-29-18(27)23-10-6-22-13-11(15(25)12(20)8(2)14(13)24)9(7-30-17(21)26)19(22,28-3)16(10)23/h9-10,16H,4-7,20H2,1-3H3,(H2,21,26)",USOBOOWDKRUMNG-UHFFFAOYSA-N,CCCOC(=O)N1C2CN3C4=C(C(COC(N)=O)C3(OC)C12)C(=O)C(=C(C)C4=O)N,-3.48,0.0,1,G1
C-2365,"2,2',3,3',4,5,5'-heptachlorobiphenyl",InChI=1S/C12H3Cl7/c13-4-1-5(9(16)7(14)2-4)6-3-8(15)11(18)12(19)10(6)17/h1-3H,HOPMUCXYRNOABF-UHFFFAOYSA-N,ClC1=CC(=C(Cl)C(=C1)C2=C(Cl)C(=C(Cl)C(=C2)Cl)Cl)Cl,-9.1,0.0,1,G1
C-2366,"2,2',3,4,4',5,6'-heptachlorobiphenyl",InChI=1S/C12H3Cl7/c13-4-1-6(14)9(7(15)2-4)5-3-8(16)11(18)12(19)10(5)17/h1-3H,RXRLRYZUMSYVLS-UHFFFAOYSA-N,ClC1=CC(=C(C(=C1)Cl)C2=CC(=C(Cl)C(=C2Cl)Cl)Cl)Cl,-8.68,0.0,1,G1
C-2367,"2,3,3',4,5,5',6-heptachlorobiphenyl",InChI=1S/C12H3Cl7/c13-5-1-4(2-6(14)3-5)7-8(15)10(17)12(19)11(18)9(7)16/h1-3H,ZUTDUGMNROUBOX-UHFFFAOYSA-N,ClC1=CC(=CC(=C1)Cl)C2=C(Cl)C(=C(Cl)C(=C2Cl)Cl)Cl,-9.1,0.0,1,G1
C-2368,8-styrylcaffeine,"InChI=1S/C16H16N4O2/c1-18-12(10-9-11-7-5-4-6-8-11)17-14-13(18)15(21)20(3)16(22)19(14)2/h4-10H,1-3H3/b10-9+",OBOGEXJSNUIECN-MDZDMXLPSA-N,CN1C(=O)N(C)C2=C([N](C)C(=N2)\C=C\C3=CC=CC=C3)C1=O,-5.55,0.0,1,G1
C-2369,"2,2',3,4,4',5,6-heptachlorobiphenyl",InChI=1S/C12H3Cl7/c13-4-1-2-5(6(14)3-4)7-8(15)10(17)12(19)11(18)9(7)16/h1-3H,DJEUXBQAKBLKPO-UHFFFAOYSA-N,ClC1=CC(=C(C=C1)C2=C(Cl)C(=C(Cl)C(=C2Cl)Cl)Cl)Cl,-8.97,0.5250000000000004,2,G2
C-2370,"2,2',3,3',4,5',6-heptachlorobiphenyl",InChI=1S/C12H3Cl7/c13-4-1-5(10(17)7(15)2-4)9-6(14)3-8(16)11(18)12(9)19/h1-3H,KJBDZJFSYQUNJT-UHFFFAOYSA-N,ClC1=CC(=C(Cl)C(=C1)Cl)C2=C(Cl)C=C(Cl)C(=C2Cl)Cl,-8.68,0.0,1,G1
C-2372,"2,2',3,3',4,5',6'-heptachlorobiphenyl;  2,2',3,3',4',5,6-heptachlorobiphenyl",InChI=1S/C12H3Cl7/c13-5-2-1-4(9(16)12(5)19)8-10(17)6(14)3-7(15)11(8)18/h1-3H,CXOYNJAHPUASHN-UHFFFAOYSA-N,ClC1=C(Cl)C(=C(C=C1)C2=C(Cl)C(=CC(=C2Cl)Cl)Cl)Cl,-8.42,0.0,1,G1
C-2373,naproxen-derivat 3f,"InChI=1S/C24H33NO5/c1-5-16(2)22(25)24(27)30-13-7-6-12-29-23(26)17(3)18-8-9-20-15-21(28-4)11-10-19(20)14-18/h8-11,14-17,22H,5-7,12-13,25H2,1-4H3",UHSJNNFEGHBUMV-UHFFFAOYSA-N,CCC(C)C(N)C(=O)OCCCCOC(=O)C(C)C1=CC2=CC=C(OC)C=C2C=C1,-4.52,0.0,1,G1
C-2374,"2,2',3,3',4,5,6'-heptachlorobiphenyl",InChI=1S/C12H3Cl7/c13-5-1-2-6(14)10(17)8(5)4-3-7(15)11(18)12(19)9(4)16/h1-3H,ZDLMBNHYTPHDLF-UHFFFAOYSA-N,ClC1=CC=C(Cl)C(=C1Cl)C2=CC(=C(Cl)C(=C2Cl)Cl)Cl,-8.59,0.0,1,G1
C-2375,rofecoxib;  4-[4-(methylsulfonyl)phenyl]-3-phenyl-2(5h)-furanone,"InChI=1S/C17H14O4S/c1-22(19,20)14-9-7-12(8-10-14)15-11-21-17(18)16(15)13-5-3-2-4-6-13/h2-10H,11H2,1H3",RZJQGNCSTQAWON-UHFFFAOYSA-N,C[S](=O)(=O)C1=CC=C(C=C1)C2=C(C(=O)OC2)C3=CC=CC=C3,-5.59,0.0,1,G1
C-2376,brucine * 4 h2o,"InChI=1S/C23H26N2O4/c1-27-16-8-14-15(9-17(16)28-2)25-20(26)10-18-21-13-7-19-23(14,22(21)25)4-5-24(19)11-12(13)3-6-29-18/h3,8-9,13,18-19,21-22H,4-7,10-11H2,1-2H3",RRKTZKIUPZVBMF-UHFFFAOYSA-N,COC1=CC2=C(C=C1OC)C34CCN5CC6=CCOC7CC(=O)N2C3C7C6CC45,-2.79,0.3500000000000001,2,G3
C-2377,"2,2',3,3',5,5',6-heptachlorobiphenyl",InChI=1S/C12H3Cl7/c13-4-1-5(10(17)6(14)2-4)9-11(18)7(15)3-8(16)12(9)19/h1-3H,WCIBKXHMIXUQHK-UHFFFAOYSA-N,ClC1=CC(=C(Cl)C(=C1)C2=C(Cl)C(=CC(=C2Cl)Cl)Cl)Cl,-8.59,0.0,1,G1
C-2378,"2,2',3,4',5,6,6'-heptachlorobiphenyl",InChI=1S/C12H3Cl7/c13-4-1-5(14)9(6(15)2-4)10-11(18)7(16)3-8(17)12(10)19/h1-3H,MMTJWDQKGUNSDK-UHFFFAOYSA-N,ClC1=CC(=C(C(=C1)Cl)C2=C(Cl)C(=CC(=C2Cl)Cl)Cl)Cl,-8.49,0.0,1,G1
C-2379,naptalam,"InChI=1S/C18H13NO3/c20-17(14-9-3-4-10-15(14)18(21)22)19-16-11-5-7-12-6-1-2-8-13(12)16/h1-11H,(H,19,20)(H,21,22)",JXTHEWSKYLZVJC-UHFFFAOYSA-N,OC(=O)C1=CC=CC=C1C(=O)NC2=C3C=CC=CC3=CC=C2,-3.16,0.0,1,G1
C-2380,"2,2',3,3',4,6,6'-heptachlorobiphenyl",InChI=1S/C12H3Cl7/c13-4-1-2-5(14)10(17)8(4)9-6(15)3-7(16)11(18)12(9)19/h1-3H,HGMYRFJAJNYBRX-UHFFFAOYSA-N,ClC1=C(Cl)C(=C(Cl)C=C1)C2=C(Cl)C(=C(Cl)C=C2Cl)Cl,-8.15,0.0,1,G1
C-2381,"2,3,3',4,4',5,5'-heptachlorodiphenyl  ether",InChI=1S/C12H3Cl7O/c13-5-1-4(2-6(14)9(5)16)20-8-3-7(15)10(17)12(19)11(8)18/h1-3H,JUHPMUOWCYBMEY-UHFFFAOYSA-N,ClC1=CC(=CC(=C1Cl)Cl)OC2=C(Cl)C(=C(Cl)C(=C2)Cl)Cl,-9.54,0.0,1,G1
C-2382,"2,2',3,3',5,6,6'-heptachlorobiphenyl",InChI=1S/C12H3Cl7/c13-4-1-2-5(14)10(17)8(4)9-11(18)6(15)3-7(16)12(9)19/h1-3H,XYHVYEUZLSYHDP-UHFFFAOYSA-N,ClC1=C(Cl)C(=C(Cl)C=C1)C2=C(Cl)C(=CC(=C2Cl)Cl)Cl,-7.94,0.0,1,G1
C-2383,"3,4'-ace-1,2-benzanthracene","InChI=1S/C20H14/c1-2-5-15-12-19-17(10-14(15)4-1)11-16-9-8-13-6-3-7-18(19)20(13)16/h1-7,10-12H,8-9H2",PMNATJJZOUNELG-UHFFFAOYSA-N,C1CC2=CC3=CC4=C(C=CC=C4)C=C3C5=C2C1=CC=C5,-2.97,0.0,1,G1
C-2384,sulfaproxyline,"InChI=1S/C16H18N2O4S/c1-11(2)22-14-7-3-12(4-8-14)16(19)18-23(20,21)15-9-5-13(17)6-10-15/h3-11H,17H2,1-2H3,(H,18,19)",FBFBRAFXKGRRHI-UHFFFAOYSA-N,CC(C)OC1=CC=C(C=C1)C(=O)N[S](=O)(=O)C2=CC=C(N)C=C2,-4.3,0.0,1,G1
C-2385,2-carboxy-7-methylthioxanthone; 7-methylthioxanthone-2-carboxylic; 7-methylsulfanyl-9-oxo-9h-xanthene-2-carboxylic acid acid,"InChI=1S/C15H10O4S/c1-20-9-3-5-13-11(7-9)14(16)10-6-8(15(17)18)2-4-12(10)19-13/h2-7H,1H3,(H,17,18)",GEMHNGLORSISHO-UHFFFAOYSA-N,CSC1=CC=C2OC3=C(C=C(C=C3)C(O)=O)C(=O)C2=C1,-5.32,0.0,1,G1
C-2386,"5,6-dimethylchrysene","InChI=1S/C20H16/c1-13-14(2)20-17-9-4-3-7-15(17)11-12-19(20)18-10-6-5-8-16(13)18/h3-12H,1-2H3",SDOJHDGZFOGOFD-UHFFFAOYSA-N,CC1=C(C)C2=C(C=CC3=C2C=CC=C3)C4=CC=CC=C14,-7.01,0.0,1,G1
C-2389,"oxaprozin;  4,5-diphenyl-2-oxazolepropanoic acid","InChI=1S/C18H15NO3/c20-16(21)12-11-15-19-17(13-7-3-1-4-8-13)18(22-15)14-9-5-2-6-10-14/h1-10H,11-12H2,(H,20,21)",OFPXSFXSNFPTHF-UHFFFAOYSA-N,OC(=O)CCC1=NC(=C(O1)C2=CC=CC=C2)C3=CC=CC=C3,-2.24,0.0,1,G1
C-2391,cholanthrene,"InChI=1S/C20H14/c1-2-7-16-13(4-1)8-10-17-18-11-9-14-5-3-6-15(20(14)18)12-19(16)17/h1-8,10,12H,9,11H2",KVFJBIQWENJTDM-UHFFFAOYSA-N,C1CC2=C3C=CC4=C(C=CC=C4)C3=CC5=CC=CC1=C25,-7.86,0.0050000000000003375,2,G3
C-2392,"acetrizoic  acid;  3-acetylamino-2,4,6-triiodobenzoic  acid","InChI=1S/C9H6I3NO3/c1-3(14)13-8-5(11)2-4(10)6(7(8)12)9(15)16/h2H,1H3,(H,13,14)(H,15,16)",GNOGSFBXBWBTIG-UHFFFAOYSA-N,CC(=O)NC1=C(I)C=C(I)C(=C1I)C(O)=O,-2.64,0.0,1,G1
C-2393,"aurin; 4-[bis(4-hydroxyphenyl)methylene]-2,5-cyclohexadien-1-one","InChI=1S/C19H14O3/c20-16-7-1-13(2-8-16)19(14-3-9-17(21)10-4-14)15-5-11-18(22)12-6-15/h1-12,20-21H",FYEHYMARPSSOBO-UHFFFAOYSA-N,OC1=CC=C(C=C1)C(C2=CC=C(O)C=C2)=C3C=CC(=O)C=C3,-2.38,0.0,1,G1
C-2394,"2,2',3,4,4',5,6-heptachlorodiphenyl  ether",InChI=1S/C12H3Cl7O/c13-4-1-2-6(5(14)3-4)20-12-10(18)8(16)7(15)9(17)11(12)19/h1-3H,RPNFRXWGMTYOPA-UHFFFAOYSA-N,ClC1=CC=C(OC2=C(Cl)C(=C(Cl)C(=C2Cl)Cl)Cl)C(=C1)Cl,-9.64,0.0,1,G1
C-2395,bromerguride,"InChI=1S/C20H25BrN4O/c1-4-25(5-2)20(26)22-12-9-14-13-7-6-8-16-18(13)15(19(21)23-16)10-17(14)24(3)11-12/h6-9,12,17,23H,4-5,10-11H2,1-3H3,(H,22,26)",SBHNNNRQZGYOAU-UHFFFAOYSA-N,CCN(CC)C(=O)NC1CN(C)C2CC3=C(Br)[NH]C4=C3C(=CC=C4)C2=C1,-4.38,0.0,1,G1
C-2396,"3,3-diphenylphthalide","InChI=1S/C20H14O2/c21-19-17-13-7-8-14-18(17)20(22-19,15-9-3-1-4-10-15)16-11-5-2-6-12-16/h1-14H",WUBNJKMFYXGQDB-UHFFFAOYSA-N,O=C1OC(C2=CC=CC=C2)(C3=CC=CC=C3)C4=C1C=CC=C4,-3.85,0.0,1,G1
C-2397,danofloxacin,"InChI=1S/C19H20FN3O3/c1-21-7-12-4-11(21)8-22(12)17-6-16-13(5-15(17)20)18(24)14(19(25)26)9-23(16)10-2-3-10/h5-6,9-12H,2-4,7-8H2,1H3,(H,25,26)",QMLVECGLEOSESV-UHFFFAOYSA-N,CN1CC2CC1CN2C3=CC4=C(C=C3F)C(=O)C(=CN4C5CC5)C(O)=O,-2.9,0.0,1,G1