ID,Name,InChI,InChIKey,SMILES,Solubility,SD,Occurrences,Group
E-397,dibenzofuran,InChI=1S/C12H8O/c1-3-7-11-9(5-1)10-6-2-4-8-12(10)13-11/h1-8H,TXCDCPKCNAJMEE-UHFFFAOYSA-N,o(c(c(c1cccc2)ccc3)c3)c12,-4.6,0.12018134445726389,3,G5
E-399,glucose,"InChI=1S/C6H12O6/c7-1-2-3(8)4(9)5(10)6(11)12-2/h2-11H,1H2",WQZGKKKJIJFFOK-UHFFFAOYSA-N,OCC1C(O)C(O)C(O)C(O)O1,0.74,0.1014731337596312,4,G5
E-400,fructose,"InChI=1S/C6H12O6/c7-2-6(11)5(10)4(9)3(8)1-12-6/h3-5,7-11H,1-2H2",LKDRXBCSQODPBY-UHFFFAOYSA-N,O1CC(O)C(O)C(O)C1(O)CO,0.64,0.325,2,G3
E-401,cortisone,"InChI=1S/C21H28O5/c1-19-7-5-13(23)9-12(19)3-4-14-15-6-8-21(26,17(25)11-22)20(15,2)10-16(24)18(14)19/h9,14-15,18,22,26H,3-8,10-11H2,1-2H3",MFYSYFVPBJMHGN-UHFFFAOYSA-N,CC13CCC(=O)C=C1CCC4C2CCC(O)(C(=O)CO)C2(C)CC(=O)C34,-3.11,0.0,1,G1
E-402,dexamethasone,"InChI=1S/C22H29FO5/c1-12-8-16-15-5-4-13-9-14(25)6-7-19(13,2)21(15,23)17(26)10-20(16,3)22(12,28)18(27)11-24/h6-7,9,12,15-17,24,26,28H,4-5,8,10-11H2,1-3H3",UREBDLICKHMUKA-UHFFFAOYSA-N,C1(=O)C=C2CCC3C4CC(C)C(O)(C(=O)CO)C4(C)CC(O)C3(F)C2(C)C=C1,-3.64,0.09474175425861615,5,G5
E-404,prednisolone,"InChI=1S/C21H28O5/c1-19-7-5-13(23)9-12(19)3-4-14-15-6-8-21(26,17(25)11-22)20(15,2)10-16(24)18(14)19/h5,7,9,14-16,18,22,24,26H,3-4,6,8,10-11H2,1-2H3",OIGNJSKKLXVSLS-UHFFFAOYSA-N,C1C2=CC(=O)C=CC2(C)C3C(O)CC4(C)C(O)(C(=O)CO)CCC4C3C1,-3.21,0.024494897427831803,3,G5
E-405,spironolactone,"InChI=1S/C24H32O4S/c1-14(25)29-19-13-15-12-16(26)4-8-22(15,2)17-5-9-23(3)18(21(17)19)6-10-24(23)11-7-20(27)28-24/h12,17-19,21H,4-11,13H2,1-3H3",LXMSZDCAJNLERA-UHFFFAOYSA-N,O=C(OC(C(C(C(C(C(C(=CC(=O)C1)C2)(C1)C)C3)C2SC(=O)C)C4)(C3)C)(C4)C5)C5,-4.28,0.05500000000000016,2,G3
E-406,estrone,"InChI=1S/C18H22O2/c1-18-9-8-14-13-5-3-12(19)10-11(13)2-4-15(14)16(18)6-7-17(18)20/h3,5,10,14-16,19H,2,4,6-9H2,1H3",DNXHEGUUPJUMQT-UHFFFAOYSA-N,O=C(C(C(C(C(c(c(cc(O)c1)C2)c1)C3)C2)C4)(C3)C)C4,-3.96,0.0,1,G1
E-410,triamcinolone_diacetate,"InChI=1S/C25H31FO8/c1-13(27)33-12-20(31)25(32)21(34-14(2)28)10-18-17-6-5-15-9-16(29)7-8-22(15,3)24(17,26)19(30)11-23(18,25)4/h7-9,17-19,21,30,32H,5-6,10-12H2,1-4H3",XGMPVBXKDAHORN-UHFFFAOYSA-N,O=C1C=C2CCC3C4CC(OC(=O)C)C(O)(C(=O)COC(=O)C)C4(C)CC(O)C3(F)C2(C)C=C1,-4.13,0.0,1,G1
E-411,17-a-hydroxyprogesterone,"InChI=1S/C21H30O3/c1-13(22)21(24)11-8-18-16-5-4-14-12-15(23)6-9-19(14,2)17(16)7-10-20(18,21)3/h12,16-18,24H,4-11H2,1-3H3",DBPWSSGDRRHUNT-UHFFFAOYSA-N,CC(=O)C3(O)CCC4C2CCC1=CC(=O)CCC1(C)C2CCC34C,-4.71,0.42821048822071417,3,G5
E-413,triamcinolone,"InChI=1S/C21H27FO6/c1-18-6-5-12(24)7-11(18)3-4-13-14-8-15(25)21(28,17(27)10-23)19(14,2)9-16(26)20(13,18)22/h5-7,13-16,23,25-26,28H,3-4,8-10H2,1-2H3",GFNANZIMVAIWHM-UHFFFAOYSA-N,CC34CC(O)C1(F)C(CCC2=CC(=O)C=CC12C)C3CC(O)C4(O)C(=O)CO,-3.69,0.0,1,G1
E-415,fluoromethasone,"InChI=1S/C22H29FO4/c1-12-9-17-15-6-8-21(27,13(2)24)20(15,4)11-18(26)22(17,23)19(3)7-5-14(25)10-16(12)19/h5,7,10,12,15,17-18,26-27H,6,8-9,11H2,1-4H3",FAOZLTXFLGPHNG-UHFFFAOYSA-N,CC1CC2C3CCC(O)(C(=O)C)C3(C)CC(O)C2(F)C4(C)C=CC(=O)C=C14,-4.1,0.0,1,G1
E-416,dexamethasone-17-acetate,"InChI=1S/C24H31FO6/c1-13-9-18-17-6-5-15-10-16(27)7-8-21(15,3)23(17,25)19(28)11-22(18,4)24(13,30)20(29)12-31-14(2)26/h7-8,10,13,17-19,28,30H,5-6,9,11-12H2,1-4H3",AKUJBENLRBOFTD-UHFFFAOYSA-N,C1(=O)C=C2CCC3C4CC(C)C(O)(C(=O)COC(=O)C)C4(C)CC(O)C3(F)C2(C)C=C1,-4.9,0.0,1,G1
E-417,betamethasone-17-valerate,"InChI=1S/C27H37FO6/c1-5-6-7-23(33)34-27(22(32)15-29)16(2)12-20-19-9-8-17-13-18(30)10-11-24(17,3)26(19,28)21(31)14-25(20,27)4/h10-11,13,16,19-21,29,31H,5-9,12,14-15H2,1-4H3",SNHRLVCMMWUAJD-UHFFFAOYSA-N,C1=CC(=O)C=C2CCC3C4CC(C)C(OC(=O)CCCC)(C(=O)CO)C4(C)CC(O)C3(F)C12C,-4.71,0.0,1,G1
E-419,p-hydroxybenzoic_acid,"InChI=1S/C7H6O3/c8-6-3-1-5(2-4-6)7(9)10/h1-4,8H,(H,9,10)",FJKROLUGYXJWQN-UHFFFAOYSA-N,O=C(O)c(ccc(O)c1)c1,-1.41,0.04965065457775954,4,G5
E-422,salicin,"InChI=1S/C13H18O7/c14-5-7-3-1-2-4-8(7)19-13-12(18)11(17)10(16)9(6-15)20-13/h1-4,9-18H,5-6H2",NGFMICBWJRZIBI-UHFFFAOYSA-N,O(C(C(O)C(O)C1O)CO)C1Oc(c(ccc2)CO)c2,-0.85,0.0,1,G1
E-423,phenyl_salicylate,"InChI=1S/C13H10O3/c14-12-9-5-4-8-11(12)13(15)16-10-6-2-1-3-7-10/h1-9,14H",ZQBAKBUEJOMQEX-UHFFFAOYSA-N,O=C(Oc(cccc1)c1)c(c(O)ccc2)c2,-3.15,0.0,1,G1
E-424,"1,3-dichloro-2-propanol","InChI=1S/C3H6Cl2O/c4-1-3(6)2-5/h3,6H,1-2H2",DEWLEGDTCGBNGU-UHFFFAOYSA-N,ClCC(O)CCl,-0.11,0.0,1,G1
E-425,"1,1,1-trifluoro-2-propanol","InChI=1S/C3H5F3O/c1-2(7)3(4,5)6/h2,7H,1H3",GILIYJDBJZWGBG-UHFFFAOYSA-N,FC(F)(F)C(O)C,0.3,0.0,1,G1
E-426,4-chlorophenol,"InChI=1S/C6H5ClO/c7-5-1-3-6(8)4-2-5/h1-4,8H",WXNZTHHGJRFXKQ-UHFFFAOYSA-N,Oc(ccc(c1)Cl)c1,-0.7,0.0165395149734071,3,G5
E-428,4-bromophenol,"InChI=1S/C6H5BrO/c7-5-1-3-6(8)4-2-5/h1-4,8H",GZFGOTFRPZRKDS-UHFFFAOYSA-N,Oc(ccc(c1)Br)c1,-1.09,0.04500000000000004,2,G3
E-430,"2,4,5-trichlorophenol","InChI=1S/C6H3Cl3O/c7-3-1-5(9)6(10)2-4(3)8/h1-2,10H",LHJGJYXLEPZJPM-UHFFFAOYSA-N,c1c(Cl)c(Cl)cc(Cl)c1O,-2.21,0.0,1,G1
E-431,pentachlorophenol,InChI=1S/C6HCl5O/c7-1-2(8)4(10)6(12)5(11)3(1)9/h12H,IZUPBVBPLAPZRR-UHFFFAOYSA-N,Oc(c(c(c(c1Cl)Cl)Cl)Cl)c1Cl,-4.28,0.03500000000000014,2,G3
E-432,3-methyl-4-chlorophenol,"InChI=1S/C7H7ClO/c1-5-4-6(9)2-3-7(5)8/h2-4,9H,1H3",CFKMVGJGLGKFKI-UHFFFAOYSA-N,c1cc(Cl)c(C)cc1O,-1.57,0.05500000000000005,2,G3
E-433,chloroacetic_acid,"InChI=1S/C2H3ClO2/c3-1-2(4)5/h1H2,(H,4,5)",FOCAUTSVDIKZOP-UHFFFAOYSA-N,O=C(O)CCl,0.93,0.0,1,G1
E-434,o-chlorobenzoic_acid,"InChI=1S/C7H5ClO2/c8-6-4-2-1-3-5(6)7(9)10/h1-4H,(H,9,10)",IKCLCGXPQILATA-UHFFFAOYSA-N,O=C(O)c(c(ccc1)Cl)c1,-1.89,0.08389808632435485,3,G5
E-436,bis-(2-chloroethyl)_ether,InChI=1S/C4H8Cl2O/c5-1-3-7-4-2-6/h1-4H2,ZNSMNVMLTJELDZ-UHFFFAOYSA-N,ClCCOCCCl,-1.12,0.10000000000000003,2,G3
E-438,dicamba,"InChI=1S/C8H6Cl2O3/c1-13-7-5(10)3-2-4(9)6(7)8(11)12/h2-3H,1H3,(H,11,12)",IWEDIXLBFLAXBO-UHFFFAOYSA-N,COc1c(Cl)ccc(Cl)c1C(O)=O,-1.7,0.13754999999999995,2,G3
E-439,triethylamine,"InChI=1S/C6H15N/c1-4-7(5-2)6-3/h4-6H2,1-3H3",ZMANZCXQSJIPKH-UHFFFAOYSA-N,CCN(CC)CC,-0.14,0.0,1,G1
E-440,dipropylamine,"InChI=1S/C6H15N/c1-3-5-7-6-4-2/h7H,3-6H2,1-2H3",WEHWNAOGRSTTBQ-UHFFFAOYSA-N,CCCNCCC,-0.46,0.11150000000000002,2,G3
E-441,heptylamine,"InChI=1S/C7H17N/c1-2-3-4-5-6-7-8/h2-8H2,1H3",WJYIASZWHGOTOU-UHFFFAOYSA-N,CCCCCCCN,-1.85,0.0,1,G1
E-443,tripropylamine,"InChI=1S/C9H21N/c1-4-7-10(8-5-2)9-6-3/h4-9H2,1-3H3",YFTHZRPMJXBUME-UHFFFAOYSA-N,CCCN(CCC)CCC,-2.28,0.0,1,G1
E-444,2-ethylhexylamine,"InChI=1S/C8H19N/c1-3-5-6-8(4-2)7-9/h8H,3-7,9H2,1-2H3",LTHNHFOGQMKPOV-UHFFFAOYSA-N,NCC(CCCC)CC,-1.71,0.0,1,G1
E-445,n-dibutylamine,"InChI=1S/C8H19N/c1-3-5-7-9-8-6-4-2/h9H,3-8H2,1-2H3",JQVDAXLFBXTEQA-UHFFFAOYSA-N,CCCCNCCCC,-1.44,0.0,1,G1
E-446,aniline,"InChI=1S/C6H7N/c7-6-4-2-1-3-5-6/h1-5H,7H2",PAYRUJLWNCNPSJ-UHFFFAOYSA-N,c1ccccc1N,-0.41,0.0,1,G1
E-447,"1,2-benzenediamine","InChI=1S/C6H8N2/c7-5-3-1-2-4-6(5)8/h1-4H,7-8H2",GEYOCULIXLDCMW-UHFFFAOYSA-N,c1cccc(N)c1N,-0.42,0.0,1,G1
E-448,"1,4-benzenediamine","InChI=1S/C6H8N2/c7-5-1-2-6(8)4-3-5/h1-4H,7-8H2",CBCKQZAAMUWICA-UHFFFAOYSA-N,c1cc(N)ccc1N,-0.38,0.04300000000000001,2,G3
E-449,2-methylaniline,"InChI=1S/C7H9N/c1-6-4-2-3-5-7(6)8/h2-5H,8H2,1H3",RNVCVTLRINQCPJ-UHFFFAOYSA-N,c1cccc(C)c1N,-0.85,0.6507431649019962,3,G4
E-450,4-methylaniline,"InChI=1S/C7H9N/c1-6-2-4-7(8)5-3-6/h2-5H,8H2,1H3",RZXMPPFPUUCRFN-UHFFFAOYSA-N,c1cc(C)ccc1N,-1.21,0.0,1,G1
E-451,3-methylaniline,"InChI=1S/C7H9N/c1-6-3-2-4-7(8)5-6/h2-5H,8H2,1H3",JJYPMNFTHPTTDI-UHFFFAOYSA-N,c1ccc(C)cc1N,-0.85,0.0,1,G1
E-452,benzylamine,"InChI=1S/C7H9N/c8-6-7-4-2-1-3-5-7/h1-5H,6,8H2",WGQKYBSKWIADBV-UHFFFAOYSA-N,c1ccccc1CN,-1.53,1.25,2,G2
E-453,N-ethylaniline,"InChI=1S/C8H11N/c1-2-9-8-6-4-3-5-7-8/h3-7,9H,2H2,1H3",OJGMBLNIHDZDGS-UHFFFAOYSA-N,c1ccccc1NCC,-1.7,0.0,1,G1
E-454,"N,N-diethylaniline","InChI=1S/C10H15N/c1-3-11(4-2)10-8-6-5-7-9-10/h5-9H,3-4H2,1-2H3",GGSUCNLOZRCGPQ-UHFFFAOYSA-N,c1ccccc1N(CC)CC,-3.03,0.0,1,G1
E-455,benzidine,"InChI=1S/C12H12N2/c13-11-5-1-9(2-6-11)10-3-7-12(14)8-4-10/h1-8H,13-14H2",HFACYLZERDEVSX-UHFFFAOYSA-N,Nc(ccc(c(ccc(N)c1)c1)c2)c2,-2.7,0.029999999999999805,2,G3
E-457,di-(p-aminophenyl)methane,"InChI=1S/C13H14N2/c14-12-5-1-10(2-6-12)9-11-3-7-13(15)8-4-11/h1-8H,9,14-15H2",YBRVSVVVWCFQMG-UHFFFAOYSA-N,Nc(ccc(c1)Cc(ccc(N)c2)c2)c1,-2.3,0.0,1,G1
E-458,phenyl_hydrazine,"InChI=1S/C6H8N2/c7-8-6-4-2-1-3-5-6/h1-5,8H,7H2",HKOOXMFOFWEVGF-UHFFFAOYSA-N,N(N)c(cccc1)c1,0.07,0.0,1,G1
E-459,pyridine,InChI=1S/C5H5N/c1-2-4-6-5-3-1/h1-5H,JUJWROOIHBZHMG-UHFFFAOYSA-N,c1ccccn1,0.76,0.17100000000000004,2,G3
E-462,"2,6-dimethylpyridine","InChI=1S/C7H9N/c1-6-4-3-5-7(2)8-6/h3-5H,1-2H3",OISVCGZHLKNMSJ-UHFFFAOYSA-N,Cc1cccc(C)n1,0.45,0.0,1,G1
E-466,"2,2'-bipyridine",InChI=1S/C10H8N2/c1-3-7-11-9(5-1)10-6-2-4-8-12-10/h1-8H,ROFVEXUMMXZLPA-UHFFFAOYSA-N,n(c(ccc1)c(nccc2)c2)c1,-1.42,0.0,1,G1
E-467,"4,4'-bipyridine",InChI=1S/C10H8N2/c1-5-11-6-2-9(1)10-3-7-12-8-4-10/h1-8H,MWVTWFVJZLCBMC-UHFFFAOYSA-N,n(ccc(c1)c(ccnc2)c2)c1,-1.54,0.0,1,G1
E-468,nicotine,"InChI=1S/C10H14N2/c1-12-7-3-5-10(12)9-4-2-6-11-8-9/h2,4,6,8,10H,3,5,7H2,1H3",SNICXCGAKADSCV-UHFFFAOYSA-N,n(cccc1C(N(CC2)C)C2)c1,0.79,0.0,1,G1
E-470,nicotinamide,"InChI=1S/C6H6N2O/c7-6(9)5-2-1-3-8-4-5/h1-4H,(H2,7,9)",DFPAKSUCGFBDDF-UHFFFAOYSA-N,O=C(N)c(cccn1)c1,0.61,0.0,1,G1
E-471,3-pyridinemethanol,"InChI=1S/C6H7NO/c8-5-6-2-1-3-7-4-6/h1-4,8H,5H2",MVQVNTPHUGQQHK-UHFFFAOYSA-N,n(cccc1CO)c1,0.96,0.0,1,G1
E-473,pyrimidine,InChI=1S/C4H4N2/c1-2-5-4-6-3-1/h1-4H,CZPWVGJYEJSRLH-UHFFFAOYSA-N,n(cccn1)c1,1.1,0.0,1,G1
E-474,benzo(f)quinoline,InChI=1S/C13H9N/c1-2-5-11-10(4-1)7-8-13-12(11)6-3-9-14-13/h1-9H,HCAUQPZEWLULFJ-UHFFFAOYSA-N,c1ccc2c(c1)ccc3ncccc23,-3.36,0.010000000000000009,2,G3
E-475,benzothiazole,InChI=1S/C7H5NS/c1-2-4-7-6(3-1)8-5-9-7/h1-5H,IOJUPLGTWVMSFF-UHFFFAOYSA-N,c1ccc2ncsc2c1,-1.5,0.0,1,G1
E-476,thiophene,InChI=1S/C4H4S/c1-2-4-5-3-1/h1-4H,YTPLMLYBLZKORZ-UHFFFAOYSA-N,s1cccc1,-1.45,0.05999999999999994,2,G3
E-477,biquinoline,InChI=1S/C18H12N2/c1-3-7-15-13(5-1)9-11-17(19-15)18-12-10-14-6-2-4-8-16(14)20-18/h1-12H,WPTCSQBWLUUYDV-UHFFFAOYSA-N,n(c(c(ccc1)cc2)c1)c2c(nc(c(ccc3)c4)c3)c4,-5.4,0.0,1,G1
E-479,benzoxazole,InChI=1S/C7H5NO/c1-2-4-7-6(3-1)8-5-9-7/h1-5H,BCMCBBGGLRIHSE-UHFFFAOYSA-N,o(c(c(n1)ccc2)c2)c1,-1.16,0.0,1,G1
E-480,pyridazine,InChI=1S/C4H4N2/c1-2-4-6-5-3-1/h1-4H,PBMFSQRYOILNGV-UHFFFAOYSA-N,n(nccc1)c1,1.1,0.0,1,G1
E-481,5-hydroxyquinoline,"InChI=1S/C9H7NO/c11-9-5-1-4-8-7(9)3-2-6-10-8/h1-6,11H",GYESAYHWISMZOK-UHFFFAOYSA-N,c1cc2ncccc2c(O)c1,-2.54,0.0,1,G1
E-482,3-methylthiophene,"InChI=1S/C5H6S/c1-5-2-3-6-4-5/h2-4H,1H3",QENGPZGAWFQWCZ-UHFFFAOYSA-N,C1(C)=CSC=C1,-2.39,0.0,1,G1
E-483,2-ethylthiophene,"InChI=1S/C6H8S/c1-2-6-4-3-5-7-6/h3-5H,2H2,1H3",JCCCMAAJYSNBPR-UHFFFAOYSA-N,C1=CSC(CC)=C1,-2.59,0.0,1,G1
E-484,3-hydroxy-5-methylisoxazole,"InChI=1S/C4H5NO2/c1-3-2-4(6)5-7-3/h2H,1H3,(H,5,6)",KGVPNLBXJKTABS-UHFFFAOYSA-N,Cc1cc(O)no1,-0.07,0.0,1,G1
E-485,phenylbutazone,"InChI=1S/C19H20N2O2/c1-2-3-14-17-18(22)20(15-10-6-4-7-11-15)21(19(17)23)16-12-8-5-9-13-16/h4-13,17H,2-3,14H2,1H3",VYMDGNCVAMGZFE-UHFFFAOYSA-N,O=C(N(N(C1=O)c(cccc2)c2)c(cccc3)c3)C1CCCC,-3.81,0.876406805592522,3,G4
E-486,cocaine,"InChI=1S/C17H21NO4/c1-18-12-8-9-13(18)15(17(20)21-2)14(10-12)22-16(19)11-6-4-3-5-7-11/h3-7,12-15H,8-10H2,1-2H3",ZPUCINDJVBIVPJ-UHFFFAOYSA-N,COC(=O)C1C(CC2CCC1N2C)OC(=O)c3ccccc3,-2.23,0.010000000000000009,2,G3
E-487,imipramine,"InChI=1S/C19H24N2/c1-20(2)14-7-15-21-18-10-5-3-8-16(18)12-13-17-9-4-6-11-19(17)21/h3-6,8-11H,7,12-15H2,1-2H3",BCGWQEUPMDMJNV-UHFFFAOYSA-N,CN(C)CCCN2c1ccccc1CCc3ccccc23,-4.19,0.0,1,G1
E-489,cyclobarbital,"InChI=1S/C12H16N2O3/c1-2-12(8-6-4-3-5-7-8)9(15)13-11(17)14-10(12)16/h6H,2-5,7H2,1H3,(H2,13,14,15,16,17)",WTYGAUXICFETTC-UHFFFAOYSA-N,CCC1(C(=O)NC(=O)NC1=O)C2=CCCCC2,-2.17,0.07499999999999996,2,G3
E-490,allobarbital,"InChI=1S/C10H12N2O3/c1-3-5-10(6-4-2)7(13)11-9(15)12-8(10)14/h3-4H,1-2,5-6H2,(H2,11,12,13,14,15)",FDQGNLOWMMVRQL-UHFFFAOYSA-N,C=CCC1(CC=C)C(=O)NC(=O)NC1=O,-2.06,0.010000000000000009,2,G3
E-491,pencillamine,"InChI=1S/C5H11NO2S/c1-5(2,9)3(6)4(7)8/h3,9H,6H2,1-2H3,(H,7,8)",VVNCNSJFMMFHPL-UHFFFAOYSA-N,CC(C)(S)C(N)C(O)=O,-0.13,0.0,1,G1
E-492,haloperidol,"InChI=1S/C21H23ClFNO2/c22-18-7-5-17(6-8-18)21(26)11-14-24(15-12-21)13-1-2-20(25)16-3-9-19(23)10-4-16/h3-10,26H,1-2,11-15H2",LNEPOXFFQSENCJ-UHFFFAOYSA-N,OC2(CCN(CCCC(=O)c1ccc(F)cc1)CC2)c3ccc(Cl)cc3,-4.43,0.0,1,G1
E-493,hexabarital,"InChI=1S/C12H16N2O3/c1-12(8-6-4-3-5-7-8)9(15)13-11(17)14(2)10(12)16/h6H,3-5,7H2,1-2H3,(H,13,15,17)",UYXAWHWODHRRMR-UHFFFAOYSA-N,CN2C(=O)NC(=O)C(C)(C1=CCCCC1)C2=O,-2.74,0.1373559851869102,3,G5
E-494,Diethylstilbestrol,"InChI=1S/C18H20O2/c1-3-17(13-5-9-15(19)10-6-13)18(4-2)14-7-11-16(20)12-8-14/h5-12,19-20H,3-4H2,1-2H3",RGLYKWWBQGJZGM-UHFFFAOYSA-N,Oc(ccc(C(=C(c(ccc(O)c1)c1)CC)CC)c2)c2,-4.35,0.13999999999999968,2,G3
E-496,strychnine,"InChI=1S/C21H22N2O2/c24-18-10-16-19-13-9-17-21(6-7-22(17)11-12(13)5-8-25-16)14-3-1-2-4-15(14)23(18)20(19)21/h1-5,13,16-17,19-20H,6-11H2",QMGVPVSNSZLJIA-UHFFFAOYSA-N,O=C(N(c(c(C1(C(N(C2)CC(C3C4C5OC6)=C6)C3)C2)ccc7)c7)C14)C5,-3.32,0.0050000000000001155,2,G3
E-500,aminopyrine,"InChI=1S/C13H17N3O/c1-10-12(14(2)3)13(17)16(15(10)4)11-8-6-5-7-9-11/h5-9H,1-4H3",RMMXTBMQSGEXHJ-UHFFFAOYSA-N,c1ccccc1N2C(=O)C(N(C)C)=C(C)N2C,-0.63,0.135,2,G3
E-501,promazine,"InChI=1S/C17H20N2S/c1-18(2)12-7-13-19-14-8-3-5-10-16(14)20-17-11-6-4-9-15(17)19/h3-6,8-11H,7,12-13H2,1-2H3",ZGUGWUXLJSTTMA-UHFFFAOYSA-N,c1ccc2Sc3ccccc3N(CCCN(C)C)c2c1,-4.3,0.6749999999999998,2,G2
E-502,hydrochlorthiazide,"InChI=1S/C7H8ClN3O4S2/c8-4-1-5-7(2-6(4)16(9,12)13)17(14,15)11-3-10-5/h1-2,10-11H,3H2,(H2,9,12,13)",JZUFKLXOESDKRF-UHFFFAOYSA-N,O=S(=O)(N)c(c(cc(NCNS1(=O)=O)c12)Cl)c2,-2.62,0.02499999999999991,2,G3
E-505,promethazine,"InChI=1S/C17H20N2S/c1-13(18(2)3)12-19-14-8-4-6-10-16(14)20-17-11-7-5-9-15(17)19/h4-11,13H,12H2,1-3H3",PWWVAXIEGOYWEE-UHFFFAOYSA-N,c1ccc2Sc3ccccc3N(CC(C)N(C)C)c2c1,-4.26,0.06499999999999995,2,G3
E-506,niridazole,"InChI=1S/C6H6N4O3S/c11-5-7-1-2-9(5)6-8-3-4(14-6)10(12)13/h3H,1-2H2,(H,7,11)",RDXLYGJSWZYTFJ-UHFFFAOYSA-N,O=C1NCCN1c2ncc(s2)N(=O)=O,-3.22,0.0,1,G1
E-508,sulfanilamide,"InChI=1S/C6H8N2O2S/c7-5-1-3-6(4-2-5)11(8,9)10/h1-4H,7H2,(H2,8,9,10)",FDDDEECHVMSUSB-UHFFFAOYSA-N,O=S(=O)(N)c(ccc(N)c1)c1,-1.36,0.012472191289246483,3,G5
E-509,fluphenazine,"InChI=1S/C22H26F3N3OS/c23-22(24,25)17-6-7-21-19(16-17)28(18-4-1-2-5-20(18)30-21)9-3-8-26-10-12-27(13-11-26)14-15-29/h1-2,4-7,16,29H,3,8-15H2",PLDUPXSUYLZYBN-UHFFFAOYSA-N,OCCN4CCN(CCCN2c1ccccc1Sc3ccc(cc23)C(F)(F)F)CC4,-4.15,0.0,1,G1
E-510,tubercidin,"InChI=1S/C11H14N4O4/c12-9-5-1-2-15(10(5)14-4-13-9)11-8(18)7(17)6(3-16)19-11/h1-2,4,6-8,11,16-18H,3H2,(H2,12,13,14)",HDZZVAMISRMYHH-UHFFFAOYSA-N,c12ncnc(N)c1ccn2C3OC(CO)C(O)C3(O),-1.95,0.0,1,G1
E-511,sulfathiozole,"InChI=1S/C9H9N3O2S2/c10-7-1-3-8(4-2-7)16(13,14)12-9-11-5-6-15-9/h1-6H,10H2,(H,11,12)",JNMRHUJNCSQMMB-UHFFFAOYSA-N,c1cc(N)ccc1S(=O)(=O)Nc2nccs2,-2.43,0.32873494895837696,3,G5
E-513,aprobarbital,"InChI=1S/C10H14N2O3/c1-4-5-10(6(2)3)7(13)11-9(15)12-8(10)14/h4,6H,1,5H2,2-3H3,(H2,11,12,13,14,15)",UORJNBVJVRLXMQ-UHFFFAOYSA-N,CC(C)C1(CC=C)C(=O)NC(=O)NC1=O,-1.71,0.0,1,G1
E-514,thiamylal,"InChI=1S/C12H18N2O2S/c1-4-6-8(3)12(7-5-2)9(15)13-11(17)14-10(12)16/h5,8H,2,4,6-7H2,1,3H3,(H2,13,14,15,16,17)",XLOMZPUITCYLMJ-UHFFFAOYSA-N,O=C1NC(=S)NC(=O)C1(CC=C)C(C)CCC,-3.46,0.0,1,G1
E-516,carbromal,"InChI=1S/C7H13BrN2O2/c1-3-7(8,4-2)5(11)10-6(9)12/h3-4H2,1-2H3,(H3,9,10,11,12)",OPNPQXLQERQBBV-UHFFFAOYSA-N,O=C(NC(=O)C(Br)(CC)CC)N,-2.68,0.08624999999999994,2,G3
E-517,phthalimide,"InChI=1S/C8H5NO2/c10-7-5-3-1-2-4-6(5)8(11)9-7/h1-4H,(H,9,10,11)",XKJCHHZQLQNZHY-UHFFFAOYSA-N,O=C(NC(=O)c1cccc2)c12,-2.61,0.5,2,G3
E-518,coumarin,InChI=1S/C9H6O2/c10-9-6-5-7-3-1-2-4-8(7)11-9/h1-6H,ZYGHJZDHTFUPRJ-UHFFFAOYSA-N,c1cc2OC(=O)C=Cc2cc1,-1.89,0.6397395303298575,3,G4
E-519,sulfaethidole,"InChI=1S/C10H12N4O2S2/c1-2-9-12-13-10(17-9)14-18(15,16)8-5-3-7(11)4-6-8/h3-6H,2,11H2,1H3,(H,13,14)",SVYBEBLNQGDRHF-UHFFFAOYSA-N,CCc2nnc(NS(=O)(=O)c1ccc(N)cc1)s2,-1.94,0.0,1,G1
E-520,eugenol,"InChI=1S/C10H12O2/c1-3-4-8-5-6-9(11)10(7-8)12-2/h3,5-7,11H,1,4H2,2H3",RRAFCDWBNXTKKO-UHFFFAOYSA-N,O(c(c(O)ccc1CC=C)c1)C,-1.56,0.0,1,G1
E-521,phenallymal,"InChI=1S/C13H12N2O3/c1-2-8-13(9-6-4-3-5-7-9)10(16)14-12(18)15-11(13)17/h2-7H,1,8H2,(H2,14,15,16,17,18)",WOIGZSBYKGQJGL-UHFFFAOYSA-N,c1ccccc1C2(CC=C)C(=O)NC(=O)NC2=O,-2.18,0.09696819066064921,4,G5
E-522,trifluoperazine,"InChI=1S/C21H24F3N3S/c1-25-11-13-26(14-12-25)9-4-10-27-17-5-2-3-6-19(17)28-20-8-7-16(15-18(20)27)21(22,23)24/h2-3,5-8,15H,4,9-14H2,1H3",ZEWQUBUPAILYHI-UHFFFAOYSA-N,CN4CCN(CCCN2c1ccccc1Sc3ccc(cc23)C(F)(F)F)CC4,-4.52,0.0,1,G1
E-523,sulfadimethoxine,"InChI=1S/C12H14N4O4S/c1-19-11-7-10(14-12(15-11)20-2)16-21(17,18)9-5-3-8(13)4-6-9/h3-7H,13H2,1-2H3,(H,14,15,16)",ZZORFUFYDOWNEF-UHFFFAOYSA-N,c1cc(N)ccc1S(=O)(=O)Nc2nc(OC)nc(OC)c2,-2.96,0.0,1,G1
E-524,primidone,"InChI=1S/C12H14N2O2/c1-2-12(9-6-4-3-5-7-9)10(15)13-8-14-11(12)16/h3-7H,2,8H2,1H3,(H,13,15)(H,14,16)",DQMZLTXERSFNPB-UHFFFAOYSA-N,CCC1(C(=O)NCNC1=O)c2ccccc2,-2.64,0.0,1,G1
E-525,oxyphenbutazone,"InChI=1S/C19H20N2O3/c1-2-3-9-17-18(23)20(14-7-5-4-6-8-14)21(19(17)24)15-10-12-16(22)13-11-15/h4-8,10-13,17,22H,2-3,9H2,1H3",HFHZKZSRXITVMK-UHFFFAOYSA-N,CCCCC1C(=O)N(N(C1=O)c2ccc(O)cc2)c3ccccc3,-3.73,0.0,1,G1
E-529,erythritol,"InChI=1S/C4H10O4/c5-1-3(7)4(8)2-6/h3-8H,1-2H2",UNXHWFMMPAWVPI-UHFFFAOYSA-N,OCC(O)C(O)CO,0.7,0.0,1,G1
E-531,carbutamide,"InChI=1S/C11H17N3O3S/c1-2-3-8-13-11(15)14-18(16,17)10-6-4-9(12)5-7-10/h4-7H,2-3,8,12H2,1H3,(H2,13,14,15)",VDTNNGKXZGSZIP-UHFFFAOYSA-N,O=C(NCCCC)NS(=O)(=O)c(ccc(N)c1)c1,-2.18,0.0,1,G1
E-532,metoclopramide,"InChI=1S/C14H22ClN3O2/c1-4-18(5-2)7-6-17-14(19)10-8-11(15)12(16)9-13(10)20-3/h8-9H,4-7,16H2,1-3H3,(H,17,19)",TTWJBBZEZQICBI-UHFFFAOYSA-N,CCN(CC)CCNC(=O)c1cc(Cl)c(N)cc1OC,-3.18,0.19499999999999984,2,G3
E-534,ethoxyzolamide,"InChI=1S/C9H10N2O3S2/c1-2-14-6-3-4-7-8(5-6)15-9(11-7)16(10,12)13/h3-5H,2H2,1H3,(H2,10,12,13)",OUZWUKMCLIBBOG-UHFFFAOYSA-N,CCOc2ccc1nc(sc1c2)S(N)(=O)=O,-3.81,0.1100000000000001,2,G3
E-535,heptabarbital,"InChI=1S/C13H18N2O3/c1-2-13(9-7-5-3-4-6-8-9)10(16)14-12(18)15-11(13)17/h7H,2-6,8H2,1H3,(H2,14,15,16,17,18)",PAZQYDJGLKSCSI-UHFFFAOYSA-N,CCC1(C(=O)NC(=O)NC1=O)C2=CCCCCC2,-3.0,0.0,1,G1
E-536,eriodictyol,"InChI=1S/C15H12O6/c16-8-4-11(19)15-12(20)6-13(21-14(15)5-8)7-1-2-9(17)10(18)3-7/h1-5,13,16-19H,6H2",SBHXYTNGIZCORC-UHFFFAOYSA-N,Oc1cc(O)c2C(=O)CC(c3cc(O)c(O)cc3)Oc2c1,-3.62,0.0,1,G1
E-537,sulfaperine,"InChI=1S/C11H12N4O2S/c1-8-6-13-11(14-7-8)15-18(16,17)10-4-2-9(12)3-5-10/h2-7H,12H2,1H3,(H,13,14,15)",DZQVFHSCSRACSX-UHFFFAOYSA-N,c1cc(N)ccc1S(=O)(=O)Nc2ncc(C)cn2,-2.82,0.0,1,G1
E-538,sulfameter,"InChI=1S/C11H12N4O3S/c1-18-9-6-13-11(14-7-9)15-19(16,17)10-4-2-8(12)3-5-10/h2-7H,12H2,1H3,(H,13,14,15)",GPTONYMQFTZPKC-UHFFFAOYSA-N,c1cc(N)ccc1S(=O)(=O)Nc2ncc(OC)cn2,-2.58,0.0,1,G1
E-539,tolcyclamide,"InChI=1S/C14H20N2O3S/c1-11-7-9-13(10-8-11)20(18,19)16-14(17)15-12-5-3-2-4-6-12/h7-10,12H,2-6H2,1H3,(H2,15,16,17)",RIGBPMDIGYBTBJ-UHFFFAOYSA-N,c1cc(C)ccc1S(=O)(=O)NC(=O)NC2CCCCC2,-4.21,0.0,1,G1
E-540,trimethoprim,"InChI=1S/C14H18N4O3/c1-19-10-5-8(6-11(20-2)12(10)21-3)4-9-7-17-14(16)18-13(9)15/h5-7H,4H2,1-3H3,(H4,15,16,17,18)",IEDVJHCEMCRBQM-UHFFFAOYSA-N,COc2cc(Cc1cnc(N)nc1N)cc(OC)c2OC,-2.86,0.04500000000000015,2,G3
E-541,lorazepam,"InChI=1S/C15H10Cl2N2O2/c16-8-5-6-12-10(7-8)13(19-15(21)14(20)18-12)9-3-1-2-4-11(9)17/h1-7,15,21H,(H,18,20)",DIWRORZWFLOCLC-UHFFFAOYSA-N,OC3N=C(c1ccccc1Cl)c2cc(Cl)ccc2NC3=O,-3.6,0.0,1,G1
E-542,tolazamide,"InChI=1S/C14H21N3O3S/c1-12-6-8-13(9-7-12)21(19,20)16-14(18)15-17-10-4-2-3-5-11-17/h6-9H,2-5,10-11H2,1H3,(H2,15,16,18)",OUDSBRTVNLOZBN-UHFFFAOYSA-N,Cc1ccc(cc1)S(=O)(=O)NC(=O)NN2CCCCCC2,-3.68,0.0,1,G1
E-544,kasugamycin,"InChI=1S/C14H21N3O3/c1-14(2,3)16-13(19)20-11-8-6-7-10(9-11)15-12(18)17(4)5/h6-9H,1-5H3,(H,15,18)(H,16,19)",OWNAXTAAAQTBSP-UHFFFAOYSA-N,CN(C)C(=O)Nc1cccc(OC(=O)NC(C)(C)C)c1,-2.93,0.0,1,G1
E-546,ditalimfos,"InChI=1S/C12H14NO4PS/c1-3-16-18(19,17-4-2)13-11(14)9-7-5-6-8-10(9)12(13)15/h5-8H,3-4H2,1-2H3",MTBZIGHNGSTDJV-UHFFFAOYSA-N,CCOP(=S)(OCC)N2C(=O)c1ccccc1C2=O,-3.35,0.0,1,G1
E-547,carboxin,"InChI=1S/C12H13NO2S/c1-9-11(16-8-7-15-9)12(14)13-10-5-3-2-4-6-10/h2-6H,7-8H2,1H3,(H,13,14)",GYSSRZJIHXQEHQ-UHFFFAOYSA-N,CC1=C(SCCO1)C(=O)Nc2ccccc2,-3.14,0.0321499999999999,2,G3