ID,Name,InChI,InChIKey,SMILES,Solubility,SD,Occurrences,Group
B-1769,"l-valine, n-glycyl-","InChI=1S/C7H14N2O3/c1-4(2)6(7(11)12)9-5(10)3-8/h4,6H,3,8H2,1-2H3,(H,9,10)(H,11,12)",STKYPAFSDFAEPH-UHFFFAOYSA-N,CC(C)C(NC(=O)CN)C(O)=O,0.4579,0.0,1,G1
B-1770,"hexanediamide, n,n'-bis(2-hydroxyethyl)-","InChI=1S/C10H20N2O4/c13-7-5-11-9(15)3-1-2-4-10(16)12-6-8-14/h13-14H,1-8H2,(H,11,15)(H,12,16)",OSGRUAAPIRXZTJ-UHFFFAOYSA-N,OCCNC(=O)CCCCC(=O)NCCO,0.4121,0.0,1,G1
B-1771,"3,4-dichlorobenzyl methylcarbamate","InChI=1S/C9H9Cl2NO2/c1-12-9(13)14-5-6-2-3-7(10)8(11)4-6/h2-4H,5H2,1H3,(H,12,13)",DSVOTYIOPGIVPP-UHFFFAOYSA-N,CNC(=O)OCc1ccc(Cl)c(Cl)c1,-3.1389,0.0,1,G1
B-1773,p-bromophenylurea,"InChI=1S/C7H7BrN2O/c8-5-1-3-6(4-2-5)10-7(9)11/h1-4H,(H3,9,10,11)",PFQUUCXMPUNRLA-UHFFFAOYSA-N,NC(=O)Nc1ccc(Br)cc1,-1.6336,0.0,1,G1
B-1774,1-bromo-2-ethylbenzene,"InChI=1S/C8H9Br/c1-2-7-5-3-4-6-8(7)9/h3-6H,2H2,1H3",HVRUGFJYCAFAAN-UHFFFAOYSA-N,CCc1ccccc1Br,-3.6702,0.0,1,G1
B-1778,"benzene, 1,3-dichloro-2-methoxy-","InChI=1S/C7H6Cl2O/c1-10-7-5(8)3-2-4-6(7)9/h2-4H,1H3",KZLMCDNAVVJKPX-UHFFFAOYSA-N,COc1c(Cl)cccc1Cl,-3.1019,0.0,1,G1
B-1779,"2-propenamide, 3-(2-nitrophenyl)-","InChI=1S/C9H8N2O3/c10-9(12)6-5-7-3-1-2-4-8(7)11(13)14/h1-6H,(H2,10,12)",RASLWNGTMHFPIQ-UHFFFAOYSA-N,NC(=O)C=Cc1ccccc1[N+]([O-])=O,-1.2837,0.0,1,G1
B-1782,"4-imidazolidinone, 3-phenyl-2-thioxo-","InChI=1S/C9H8N2OS/c12-8-6-10-9(13)11(8)7-4-2-1-3-5-7/h1-5H,6H2,(H,10,13)",ZZRIQDWDJVLELF-UHFFFAOYSA-N,O=C1CNC(=S)N1c2ccccc2,-3.2425,0.0,1,G1
B-1783,n-decylamine,"InChI=1S/C10H23N/c1-2-3-4-5-6-7-8-9-10-11/h2-11H2,1H3",MHZGKXUYDGKKIU-UHFFFAOYSA-N,CCCCCCCCCCN,-2.4564,0.0,1,G1
B-1784,ethyl b-phenylpropionate,"InChI=1S/C11H14O2/c1-2-13-11(12)9-8-10-6-4-3-5-7-10/h3-7H,2,8-9H2,1H3",JAGZUIGGHGTFHO-UHFFFAOYSA-N,CCOC(=O)CCc1ccccc1,-2.9086,0.0,1,G1
B-1789,"propanamide, 2-hydroxy-","InChI=1S/C3H7NO2/c1-2(5)3(4)6/h2,5H,1H3,(H2,4,6)",SXQFCVDSOLSHOQ-UHFFFAOYSA-N,CC(O)C(N)=O,0.9435,0.0,1,G1
B-1791,diethyl pimelate,"InChI=1S/C11H20O4/c1-3-14-10(12)8-6-5-7-9-11(13)15-4-2/h3-9H2,1-2H3",LKKOGZVQGQUVHF-UHFFFAOYSA-N,CCOC(=O)CCCCCC(=O)OCC,-2.0408,0.013900000000000023,2,G3
B-1796,"2,4-dihydroxyazobenzene","InChI=1S/C12H10N2O2/c15-10-6-7-11(12(16)8-10)14-13-9-4-2-1-3-5-9/h1-8,13,16H/b14-11+",PULNESMFDLBKAZ-SDNWHVSQSA-N,OC/1=CC(=O)C=CC1=N/Nc2ccccc2,-3.0299,0.0,1,G1
B-1797,"dl-allothreonine, o-methyl-","InChI=1S/C5H11NO3/c1-3(9-2)4(6)5(7)8/h3-4H,6H2,1-2H3,(H,7,8)",FYCWLJLGIAUCCL-UHFFFAOYSA-N,COC(C)C(N)C(O)=O,0.4853,0.0063,2,G3
B-1799,"phenol, 4,4'-(3-methylbutylidene)bis-","InChI=1S/C17H20O2/c1-12(2)11-17(13-3-7-15(18)8-4-13)14-5-9-16(19)10-6-14/h3-10,12,17-19H,11H2,1-2H3",SRFHDEQOIMRMHH-UHFFFAOYSA-N,CC(C)CC(c1ccc(O)cc1)c2ccc(O)cc2,-3.3674,0.0,1,G1
B-1800,"pentanedioic acid, 2,4-dimethyl-","InChI=1S/C7H12O4/c1-4(6(8)9)3-5(2)7(10)11/h4-5H,3H2,1-2H3,(H,8,9)(H,10,11)/p-2/t4-,5+",VIWYMIDWAOZEAZ-SYDPRGILSA-L,C[C@@H](C[C@@H](C)C([O-])=O)C([O-])=O,-0.4564,0.0,1,G1
B-1801,clorexolone,"InChI=1S/C14H17ClN2O3S/c15-12-6-9-8-17(10-4-2-1-3-5-10)14(18)11(9)7-13(12)21(16,19)20/h6-7,10H,1-5,8H2,(H2,16,19,20)",VPMWFZKOWULPGT-UHFFFAOYSA-N,N[S](=O)(=O)c1cc2c(CN(C3CCCCC3)C2=O)cc1Cl,-4.3128,0.0,1,G1
B-1802,"benzene, 1-bromo-3-isothiocyanato-",InChI=1S/C7H4BrNS/c8-6-2-1-3-7(4-6)9-5-10/h1-4H,ZMGMGHNOACSMQN-UHFFFAOYSA-N,Brc1cccc(c1)N=C=S,-4.0851,0.0,1,G1
B-1803,flumethasone,"InChI=1S/C22H28F2O5/c1-11-6-13-14-8-16(23)15-7-12(26)4-5-19(15,2)21(14,24)17(27)9-20(13,3)22(11,29)18(28)10-25/h4-5,7,11,13-14,16-17,25,27,29H,6,8-10H2,1-3H3/t11-,13+,14+,16+,17+,19+,20+,21+,22+/m1/s1",WXURHACBFYSXBI-GQKYHHCASA-N,C[C@@H]1C[C@H]2[C@@H]3C[C@H](F)C4=CC(=O)C=C[C@]4(C)[C@@]3(F)[C@@H](O)C[C@]2(C)[C@@]1(O)C(=O)CO,-5.6133,0.0,1,G1
B-1804,"1,3-benzenediol, 4-cyclohexyl-","InChI=1S/C12H16O2/c13-10-6-7-11(12(14)8-10)9-4-2-1-3-5-9/h6-9,13-14H,1-5H2",LSEHCENPUMUIKC-UHFFFAOYSA-N,Oc1ccc(C2CCCCC2)c(O)c1,-2.5763,0.0,1,G1
B-1805,endosulfan diol,"InChI=1S/C9H8Cl6O2/c10-5-6(11)8(13)4(2-17)3(1-16)7(5,12)9(8,14)15/h3-4,16-17H,1-2H2",GTSJHTSVFKEASK-UHFFFAOYSA-N,OCC1C(CO)C2(Cl)C(=C(Cl)C1(Cl)C2(Cl)Cl)Cl,-3.0802,0.0,1,G1
B-1806,"benzoic acid, 2-(4-bromobenzoyl)-","InChI=1S/C14H9BrO3/c15-10-7-5-9(6-8-10)13(16)11-3-1-2-4-12(11)14(17)18/h1-8H,(H,17,18)",NONNFIAFWRSPPY-UHFFFAOYSA-N,OC(=O)c1ccccc1C(=O)c2ccc(Br)cc2,-3.0074,0.0,1,G1
B-1807,4-ethylamino-6-isopropylamino-s-triazin-2-ol,"InChI=1S/C8H15N5O/c1-4-9-6-11-7(10-5(2)3)13-8(14)12-6/h5H,4H2,1-3H3,(H3,9,10,11,12,13,14)",NFMIMWNQWAWNDW-UHFFFAOYSA-N,CCNC1=NC(=O)N=C(NC(C)C)N1,-4.5241,0.0,1,G1
B-1809,msma,"InChI=1S/CH5AsO3.Na/c1-2(3,4)5;/h1H3,(H2,3,4,5);/q;+1/p-1",JITOKQVGRJSHHA-UHFFFAOYSA-M,[Na+].C[As](O)([O-])=O,0.5539999999999999,0.0,1,G1
B-1811,dicryl,"InChI=1S/C10H9Cl2NO/c1-6(2)10(14)13-7-3-4-8(11)9(12)5-7/h3-5H,1H2,2H3,(H,13,14)",VCBRBUKGTWLJOB-UHFFFAOYSA-N,CC(=C)C(=O)Nc1ccc(Cl)c(Cl)c1,-4.4325,0.0,1,G1
B-1812,bcpc,"InChI=1S/C11H14ClNO2/c1-3-8(2)15-11(14)13-10-6-4-5-9(12)7-10/h4-8H,3H2,1-2H3,(H,13,14)",CURLHBZYTFVCRG-UHFFFAOYSA-N,CCC(C)OC(=O)Nc1cccc(Cl)c1,-3.1727,0.0,1,G1
B-1813,"naphthalene, 2-(2-methylpropoxy)-","InChI=1S/C14H16O/c1-11(2)10-15-14-8-7-12-5-3-4-6-13(12)9-14/h3-9,11H,10H2,1-2H3",XOHIHZHSDMWWMS-UHFFFAOYSA-N,CC(C)COc1ccc2ccccc2c1,-5.2117,0.0,1,G1
B-1816,"1h-pyrrole-2-carboxylic acid, 3,5-dimethyl-, eth","InChI=1S/C9H13NO2/c1-4-12-9(11)8-6(2)5-7(3)10-8/h5,10H,4H2,1-3H3",IZSBSZYFPYIJDI-UHFFFAOYSA-N,CCOC(=O)c1[nH]c(C)cc1C,-2.6212,0.0,1,G1
B-1817,"1,3-benzenedicarboxylic acid, 4-methoxy-","InChI=1S/C9H8O5/c1-14-7-3-2-5(8(10)11)4-6(7)9(12)13/h2-4H,1H3,(H,10,11)(H,12,13)",JIICYHFLIOGGHE-UHFFFAOYSA-N,COc1ccc(cc1C(O)=O)C(O)=O,-3.1165,0.0,1,G1
B-1818,"1,2-dimethylcyclohexane (cis)","InChI=1S/C8H16/c1-7-5-3-4-6-8(7)2/h7-8H,3-6H2,1-2H3/t7-,8+",KVZJLSYJROEPSQ-OCAPTIKFSA-N,C[C@H]1CCCC[C@H]1C,-4.2719,0.4999499999999999,2,G3
B-1820,"butane, 2,3-dichloro-, (r*,r*)-(.+-.)-","InChI=1S/C4H8Cl2/c1-3(5)4(2)6/h3-4H,1-2H3/t3-,4-/m1/s1",RMISVOPUIFJTEO-QWWZWVQMSA-N,C[C@@H](Cl)[C@@H](C)Cl,-2.3541,0.0,1,G1
B-1821,"1-naphthalenecarboxylic acid, 8-nitro-","InChI=1S/C11H7NO4/c13-11(14)8-5-1-3-7-4-2-6-9(10(7)8)12(15)16/h1-6H,(H,13,14)",USMKVLABRYGBJX-UHFFFAOYSA-N,OC(=O)c1cccc2cccc(c12)[N+]([O-])=O,-2.7501,0.0,1,G1
B-1822,4-methyloctane,"InChI=1S/C9H20/c1-4-6-8-9(3)7-5-2/h9H,4-8H2,1-3H3",DOGIHOCMZJUJNR-UHFFFAOYSA-N,CCCCC(C)CCC,-6.0474,0.0,1,G1
B-1823,menthol (l),"InChI=1S/C10H20O/c1-7(2)9-5-4-8(3)6-10(9)11/h7-11H,4-6H2,1-3H3/t8-,9+,10-/m1/s1",NOOLISFMXDJSKH-KXUCPTDWSA-N,CC(C)[C@@H]1CC[C@@H](C)C[C@H]1O,-2.5037,0.015650000000000164,2,G3
B-1824,"naphthalene, 1-methoxy-","InChI=1S/C11H10O/c1-12-11-8-4-6-9-5-2-3-7-10(9)11/h2-8H,1H3",NQMUGNMMFTYOHK-UHFFFAOYSA-N,COc1cccc2ccccc12,-4.1992,0.0,1,G1
B-1825,(+)-fenchol,"InChI=1S/C10H18O/c1-9(2)7-4-5-10(3,6-7)8(9)11/h7-8,11H,4-6H2,1-3H3/t7-,8-,10+/m1/s1",IAIHUHQCLTYTSF-MRTMQBJTSA-N,CC1(C)[C@@H]2CC[C@@](C)(C2)[C@@H]1O,-2.2702,0.0,1,G1
B-1826,"pentane, 3,3-bis(ethylsulfonyl)-","InChI=1S/C9H20O4S2/c1-5-9(6-2,14(10,11)7-3)15(12,13)8-4/h5-8H2,1-4H3",VTZYVPLHCQBWSP-UHFFFAOYSA-N,CCC(CC)([S](=O)(=O)CC)[S](=O)(=O)CC,-2.0625,0.0,1,G1
B-1828,dienochlor,"InChI=1S/C10Cl10/c11-1-2(12)6(16)9(19,5(1)15)10(20)7(17)3(13)4(14)8(10)18",LWLJUMBEZJHXHV-UHFFFAOYSA-N,ClC1=C(Cl)C(Cl)(C(=C1Cl)Cl)C2(Cl)C(=C(Cl)C(=C2Cl)Cl)Cl,-7.2784,0.0,1,G1
B-1829,"2-cyclohexen-1-one, oxime, (z)-","InChI=1S/C6H9NO/c8-7-6-4-2-1-3-5-6/h2,4,8H,1,3,5H2/b7-6+",WNPVAXLJVUXYFU-VOTSOKGWSA-N,O\N=C/1CCCC=C1,-0.9667,0.0,1,G1
B-1831,m-aminobenzonitrile,"InChI=1S/C7H6N2/c8-5-6-2-1-3-7(9)4-6/h1-4H,9H2",NJXPYZHXZZCTNI-UHFFFAOYSA-N,Nc1cccc(c1)C#N,-1.1693,0.0,1,G1
B-1832,nonanonitrile,"InChI=1S/C9H17N/c1-2-3-4-5-6-7-8-9-10/h2-8H2,1H3",PLZZPPHAMDJOSR-UHFFFAOYSA-N,CCCCCCCCC#N,-3.2987,0.0,1,G1
B-1834,2-phenethylisothiocyanate,"InChI=1S/C9H9NS/c11-8-10-7-6-9-4-2-1-3-5-9/h1-5H,6-7H2",IZJDOKYDEWTZSO-UHFFFAOYSA-N,S=C=NCCc1ccccc1,-3.1714,0.0,1,G1
B-1835,"2,3,3-trichloro-2-propenoic acid","InChI=1S/C3HCl3O2/c4-1(2(5)6)3(7)8/h(H,7,8)/p-1",WMUBNWIGNSIRDH-UHFFFAOYSA-M,[O-]C(=O)C(Cl)=C(Cl)Cl,-0.4659,0.0,1,G1
B-1836,"1h-purine, 8-(trifluoromethyl)-","InChI=1S/C6H3F3N4/c7-6(8,9)5-12-3-1-10-2-11-4(3)13-5/h1-2H,(H,10,11,12,13)",YGINUNRCDDYFKD-UHFFFAOYSA-N,FC(F)(F)c1[nH]c2cncnc2n1,-0.4505,0.0,1,G1
B-1837,5-phenylpentanoic acid,"InChI=1S/C11H14O2/c12-11(13)9-5-4-8-10-6-2-1-3-7-10/h1-3,6-7H,4-5,8-9H2,(H,12,13)",BYHDDXPKOZIZRV-UHFFFAOYSA-N,OC(=O)CCCCc1ccccc1,-2.4657,0.23285,2,G3
B-1838,"7h-purine, 2,6-dichloro-7-methyl-","InChI=1S/C6H4Cl2N4/c1-12-2-9-5-3(12)4(7)10-6(8)11-5/h2H,1H3",HVMUWHZAZGTMJK-UHFFFAOYSA-N,Cn1cnc2nc(Cl)nc(Cl)c12,-1.1522,0.0,1,G1
B-1839,"phosphoric acid,2-chloro-(2,4-dichlorophenyl)vin","InChI=1S/C10H10Cl3O4P/c1-15-18(14,16-2)17-10(6-11)8-4-3-7(12)5-9(8)13/h3-6H,1-2H3/b10-6-",QSGNQELHULIMSJ-POHAHGRESA-N,CO[P](=O)(OC)OC(=C\Cl)/c1ccc(Cl)cc1Cl,-3.4066,0.0,1,G1
B-1841,vamidothion,"InChI=1S/C8H18NO4PS2/c1-9-8(10)4-5-15-6-7-16-14(11,12-2)13-3/h4-7H2,1-3H3,(H,9,10)",CUJJSLYROAWARJ-UHFFFAOYSA-N,CNC(=O)CCSCCS[P](=O)(OC)OC,0.5416,0.0,1,G1
B-1842,"1-naphthalenecarboxylic acid, 2-hydroxy-","InChI=1S/C11H8O3/c12-9-6-5-7-3-1-2-4-8(7)10(9)11(13)14/h1-6,12H,(H,13,14)",UPHOPMSGKZNELG-UHFFFAOYSA-N,OC(=O)c1c(O)ccc2ccccc12,-3.1284,0.0,1,G1
B-1847,"1h-purine-2,6,8(3h)-trione, 7,9-dihydro-1,3,7,9-",InChI=1S/C9H12N4O3/c1-10-5-6(11(2)8(10)15)12(3)9(16)13(4)7(5)14/h1-4H3,QGDOQULISIQFHQ-UHFFFAOYSA-N,CN1C(=O)N(C)C2=C(N(C)C(=O)N2C)C1=O,-0.9527,0.0,1,G1
B-1850,cdea,"InChI=1S/C6H12ClNO/c1-3-8(4-2)6(9)5-7/h3-5H2,1-2H3",CQQUWTMMFMJEFE-UHFFFAOYSA-N,CCN(CC)C(=O)CCl,-0.243,0.0,1,G1
B-1852,"benzenemethanol, 5-bromo-2-hydroxy-","InChI=1S/C7H7BrO2/c8-6-1-2-7(10)5(3-6)4-9/h1-3,9-10H,4H2",KNKRHSVKIORZQB-UHFFFAOYSA-N,OCc1cc(Br)ccc1O,-0.2072,0.0,1,G1
B-1853,"butanedioic acid, (1-methylethyl)-","InChI=1S/C7H12O4/c1-4(2)5(7(10)11)3-6(8)9/h4-5H,3H2,1-2H3,(H,8,9)(H,10,11)",RKAFKUROUOLPOL-UHFFFAOYSA-N,CC(C)C(CC(O)=O)C(O)=O,-0.4073,0.0,1,G1
B-1854,"n-acetyl-l-phenylalanine, ethyl ester","InChI=1S/C13H17NO3/c1-3-17-13(16)12(14-10(2)15)9-11-7-5-4-6-8-11/h4-8,12H,3,9H2,1-2H3,(H,14,15)/t12-/m0/s1",YIVZYFDBEPMPNL-LBPRGKRZSA-N,CCOC(=O)[C@H](Cc1ccccc1)NC(C)=O,-1.7557,0.0,1,G1
B-1856,"2,2-dimethyl-1-pentanol","InChI=1S/C7H16O/c1-4-5-7(2,3)6-8/h8H,4-6H2,1-3H3",QTOMCRXZFDHJOL-UHFFFAOYSA-N,CCCC(C)(C)CO,-1.4391,0.5099753392730542,3,G4
B-1857,"3,4-(methylenedioxy)cinnamic acid","InChI=1S/C10H8O4/c11-10(12)4-2-7-1-3-8-9(5-7)14-6-13-8/h1-5H,6H2,(H,11,12)/b4-2-",QFQYZMGOKIROEC-RQOWECAXSA-N,OC(=O)\C=C/c1ccc2OCOc2c1,-3.8523,0.0,1,G1
B-1859,10-methyl-benz(a)anthracene,"InChI=1S/C19H14/c1-13-6-7-15-11-16-9-8-14-4-2-3-5-18(14)19(16)12-17(15)10-13/h2-12H,1H3",WUMGYHICFXGLAB-UHFFFAOYSA-N,Cc1ccc2cc3ccc4ccccc4c3cc2c1,-6.644,0.0,1,G1
B-1862,2(3h)-benzoxazolethione,"InChI=1S/C7H5NOS/c10-7-8-5-3-1-2-4-6(5)9-7/h1-4H,(H,8,10)",FLFWJIBUZQARMD-UHFFFAOYSA-N,S=C1Nc2ccccc2O1,-2.1795,0.0,1,G1
B-1866,n-oxidenicotinic acid,"InChI=1S/C6H5NO3/c8-6(9)5-2-1-3-7(10)4-5/h1-4H,(H,8,9)",FJCFFCXMEXZEIM-UHFFFAOYSA-N,OC(=O)C1=C[NH++]([O-])[CH-]C=C1,-1.2983,0.0,1,G1
B-1867,"phosphonic acid, ethyl-, dibutyl ester","InChI=1S/C10H23O3P/c1-4-7-9-12-14(11,6-3)13-10-8-5-2/h4-10H2,1-3H3",SBRBXWIDHBSVPD-UHFFFAOYSA-N,CCCCO[P](=O)(CC)OCCCC,-1.5687,0.0,1,G1
B-1868,dibutyl methylphosphonate,"InChI=1S/C9H21O3P/c1-4-6-8-11-13(3,10)12-9-7-5-2/h4-9H2,1-3H3",NPNBLTJGRBYCJB-UHFFFAOYSA-N,CCCCO[P](C)(=O)OCCCC,-1.4155,0.0,1,G1
B-1869,"phenol, 2-phenoxy-","InChI=1S/C12H10O2/c13-11-8-4-5-9-12(11)14-10-6-2-1-3-7-10/h1-9,13H",KDTZBYPBMTXCSO-UHFFFAOYSA-N,Oc1ccccc1Oc2ccccc2,-3.2286,0.0,1,G1
B-1870,tri-sec-butanolamine,"InChI=1S/C12H27NO3/c1-4-10(14)7-13(8-11(15)5-2)9-12(16)6-3/h10-12,14-16H,4-9H2,1-3H3",BFIAIMMAHAIVFT-UHFFFAOYSA-N,CCC(O)CN(CC(O)CC)CC(O)CC,-0.5229,0.0,1,G1
B-1873,glycidyl n-butyl ether,"InChI=1S/C7H14O2/c1-2-3-4-8-5-7-6-9-7/h7H,2-6H2,1H3",YSUQLAYJZDEMOT-UHFFFAOYSA-N,CCCCOCC1CO1,-0.8135,0.0,1,G1
B-1874,"4-methyl-2,6-dichlorophenol","InChI=1S/C7H6Cl2O/c1-4-2-5(8)7(10)6(9)3-4/h2-3,10H,1H3",YXEOEPYIBGTLML-UHFFFAOYSA-N,Cc1cc(Cl)c(O)c(Cl)c1,-1.4202,0.0,1,G1
B-1875,"pteridine, 2-methyl-","InChI=1S/C7H6N4/c1-5-10-4-6-7(11-5)9-3-2-8-6/h2-4H,1H3",BIGRRCHSUAXSEE-UHFFFAOYSA-N,Cc1ncc2nccnc2n1,-0.1191,0.1726839180571125,3,G5
B-1876,"pteridine, 4-methyl-","InChI=1S/C7H6N4/c1-5-6-7(11-4-10-5)9-3-2-8-6/h2-4H,1H3",WESDBLALURHRDL-UHFFFAOYSA-N,Cc1ncnc2nccnc12,-0.4658,0.16900469421488465,3,G5
B-1878,oxythioquinox,"InChI=1S/C10H6N2OS2/c1-5-2-3-6-7(4-5)12-9-8(11-6)14-10(13)15-9/h2-4H,1H3",FBQQHUGEACOBDN-UHFFFAOYSA-N,Cc1ccc2nc3SC(=O)Sc3nc2c1,-5.3698,0.0,1,G1
B-1879,dodine,"InChI=1S/C13H29N3.C2H4O2/c1-2-3-4-5-6-7-8-9-10-11-12-16-13(14)15;1-2(3)4/h2-12H2,1H3,(H4,14,15,16);1H3,(H,3,4)",YIKWKLYQRFRGPM-UHFFFAOYSA-N,CCCCCCCCCCCCN=C(N)N.CC(O)=O,-2.6592,0.0,1,G1
B-1880,o-methoxybenzamide,"InChI=1S/C8H9NO2/c1-11-7-5-3-2-4-6(7)8(9)10/h2-5H,1H3,(H2,9,10)",MNWSGMTUGXNYHJ-UHFFFAOYSA-N,COc1ccccc1C(N)=O,-1.7815,0.0,1,G1
B-1881,glyphosine,"InChI=1S/C4H11NO8P2/c6-4(7)1-5(2-14(8,9)10)3-15(11,12)13/h1-3H2,(H,6,7)(H2,8,9,10)(H2,11,12,13)",OXHDYFKENBXUEM-UHFFFAOYSA-N,OC(=O)CN(C[P](O)(O)=O)C[P](O)(O)=O,-0.0256,0.0728,2,G3
B-1882,"ethanone, 2-(4-aminophenyl)-1-phenyl-","InChI=1S/C14H13NO/c15-13-8-6-11(7-9-13)10-14(16)12-4-2-1-3-5-12/h1-9H,10,15H2",XBDWIJCZQWUMMU-UHFFFAOYSA-N,Nc1ccc(CC(=O)c2ccccc2)cc1,-1.805,0.0,1,G1
B-1883,"4,4'-dichlorodiphenyl ether",InChI=1S/C12H8Cl2O/c13-9-1-5-11(6-2-9)15-12-7-3-10(14)4-8-12/h1-8H,URUJZHZLCCIILC-UHFFFAOYSA-N,Clc1ccc(Oc2ccc(Cl)cc2)cc1,-4.7999,0.0,1,G1
B-1884,terpin hydrate (cis-form),"InChI=1S/C10H20O2.H2O/c1-9(2,11)8-4-6-10(3,12)7-5-8;/h8,11-12H,4-7H2,1-3H3;1H2",JGKJMBOJWVAMIJ-UHFFFAOYSA-N,O.CC(C)(O)C1CCC(C)(O)CC1,-1.6774,0.0,1,G1
B-1886,"1,4,5,8-tetraaminoanthraquinone","InChI=1S/C14H12N4O2/c15-5-1-2-6(16)10-9(5)13(19)11-7(17)3-4-8(18)12(11)14(10)20/h1-4H,15-18H2",JSFUMBWFPQSADC-UHFFFAOYSA-N,Nc1ccc(N)c2C(=O)c3c(N)ccc(N)c3C(=O)c12,-6.9515,0.0,1,G1
B-1888,"glycine, n-formyl-","InChI=1S/C3H5NO3/c5-2-4-1-3(6)7/h2H,1H2,(H,4,5)(H,6,7)",UGJBHEZMOKVTIM-UHFFFAOYSA-N,OC(=O)CNC=O,0.2672,0.0,1,G1
B-1889,"ethanone, 1-(4-hydroxyphenyl)-2-phenyl-","InChI=1S/C14H12O2/c15-13-8-6-12(7-9-13)14(16)10-11-4-2-1-3-5-11/h1-9,15H,10H2",JBQTZLNCDIFCCO-UHFFFAOYSA-N,Oc1ccc(cc1)C(=O)Cc2ccccc2,-1.5008,0.0,1,G1
B-1890,disulfoton sulfone,"InChI=1S/C8H19O4PS3/c1-4-11-13(14,12-5-2)15-7-8-16(9,10)6-3/h4-8H2,1-3H3",BKVJOVPVLOJPKJ-UHFFFAOYSA-N,CCO[P](=S)(OCC)SCC[S](=O)(=O)CC,-2.5403,0.0,1,G1
B-1891,"benz[a]anthracene, 5-fluoro-7-methyl-","InChI=1S/C19H13F/c1-12-14-7-3-2-6-13(14)10-18-15-8-4-5-9-16(15)19(20)11-17(12)18/h2-11H,1H3",IGJZSNRZNHDOFW-UHFFFAOYSA-N,Cc1c2ccccc2cc3c1cc(F)c4ccccc34,-7.31,0.0,1,G1
B-1894,dibutyl phenyl phosphate,"InChI=1S/C14H23O4P/c1-3-5-12-16-19(15,17-13-6-4-2)18-14-10-8-7-9-11-14/h7-11H,3-6,12-13H2,1-2H3",YICSVBJRVMLQNS-UHFFFAOYSA-N,CCCCO[P](=O)(OCCCC)Oc1ccccc1,-3.4746,0.0,1,G1
B-1898,"benz[a]anthracene, 6-fluoro-7-methyl-","InChI=1S/C19H13F/c1-12-15-8-4-2-6-13(15)10-17-16-9-5-3-7-14(16)11-18(20)19(12)17/h2-11H,1H3",YTMJGWZZUJCJPE-UHFFFAOYSA-N,Cc1c2ccccc2cc3c4ccccc4cc(F)c13,-7.31,0.0,1,G1
B-1900,"nonanoic acid, 9-oxo-","InChI=1S/C9H16O3/c10-8-6-4-2-1-3-5-7-9(11)12/h8H,1-7H2,(H,11,12)",WLGDDELKYAWBBL-UHFFFAOYSA-N,OC(=O)CCCCCCCC=O,-0.9574,0.0,1,G1
B-1901,"acetamide, 2,2-dichloro-n-phenyl-","InChI=1S/C8H7Cl2NO/c9-7(10)8(12)11-6-4-2-1-3-5-6/h1-5,7H,(H,11,12)",KJSVAEGLTPBKAA-UHFFFAOYSA-N,ClC(Cl)C(=O)Nc1ccccc1,-3.3555,0.0,1,G1
B-1902,"1,3-dioxolane, 2-ethyl-","InChI=1S/C5H10O2/c1-2-5-6-3-4-7-5/h5H,2-4H2,1H3",WEBRDDDJKLAXTO-UHFFFAOYSA-N,CCC1OCCO1,0.2919,0.0,1,G1
B-1903,"ethanediimidamide, n,n''-dihydroxy-","InChI=1S/C2H6N4O2/c3-1(5-7)2(4)6-8/h5,7H,3-4H2/b2-1-",XYIWQQBZKLUEND-UPHRSURJSA-N,N\C(NO)=C(/N)N=O,-0.7773,0.0,1,G1
B-1905,c.i. disperse orange 1,"InChI=1S/C18H14N4O2/c23-22(24)18-12-10-17(11-13-18)21-20-16-8-6-15(7-9-16)19-14-4-2-1-3-5-14/h1-13,19H",YFVXLROHJBSEDW-UHFFFAOYSA-N,[O-][N+](=O)c1ccc(cc1)N=Nc2ccc(Nc3ccccc3)cc2,-7.5229,0.0,1,G1
B-1906,"guanidine, 2-benzothiazolyl-","InChI=1S/C8H8N4S/c9-7(10)12-8-11-5-3-1-2-4-6(5)13-8/h1-4H,(H4,9,10,11,12)",QMHWARSFUCGBJK-UHFFFAOYSA-N,NC(N)=Nc1sc2ccccc2n1,-2.4412,0.0,1,G1
B-1907,2-hexenedioic acid,"InChI=1S/C6H8O4/c7-5(8)3-1-2-4-6(9)10/h1,3H,2,4H2,(H,7,8)(H,9,10)",HSBSUGYTMJWPAX-UHFFFAOYSA-N,OC(=O)CCC=CC(O)=O,-1.2045,0.0,1,G1
B-1908,phorate sulfoxide,"InChI=1S/C7H17O3PS3/c1-4-9-11(12,10-5-2)13-7-14(8)6-3/h4-7H2,1-3H3",XRQHTUDGPWMPKX-UHFFFAOYSA-N,CCO[P](=S)(OCC)SC[S](=O)CC,-1.5384,0.0,1,G1
B-1909,phorate sulfone,"InChI=1S/C7H17O4PS3/c1-4-10-12(13,11-5-2)14-7-15(8,9)6-3/h4-7H2,1-3H3",YVPSNUIHHFTTRL-UHFFFAOYSA-N,CCO[P](=S)(OCC)SC[S](=O)(=O)CC,-2.5309,0.0,1,G1
B-1910,etridazole,"InChI=1S/C5H5Cl3N2OS/c1-2-11-4-9-3(10-12-4)5(6,7)8/h2H2,1H3",KQTVWCSONPJJPE-UHFFFAOYSA-N,CCOc1snc(n1)C(Cl)(Cl)Cl,-3.3254,0.0,1,G1
B-1911,mecarbam,"InChI=1S/C10H20NO5PS2/c1-5-14-10(13)11(4)9(12)8-19-17(18,15-6-2)16-7-3/h5-8H2,1-4H3",KLGMSAOQDHLCOS-UHFFFAOYSA-N,CCOC(=O)N(C)C(=O)CS[P](=S)(OCC)OCC,-2.5177,0.0,1,G1
B-1912,fenthoate,"InChI=1S/C12H17O4PS2/c1-4-16-12(13)11(10-8-6-5-7-9-10)19-17(18,14-2)15-3/h5-9,11H,4H2,1-3H3",XAMUDJHXFNRLCY-UHFFFAOYSA-N,CCOC(=O)C(S[P](=S)(OC)OC)c1ccccc1,-4.4643,0.0,1,G1
B-1913,chipcote,InChI=1S/CN.CH3.Hg/c1-2;;/h;1H3;,DHKAICYEDDOCRO-UHFFFAOYSA-N,C[Hg]C#N,-0.0821,0.0,1,G1
B-1914,"3,5-pyridinedicarboxylic acid, 2,6-dimethyl-","InChI=1S/C9H9NO4/c1-4-6(8(11)12)3-7(9(13)14)5(2)10-4/h3H,1-2H3,(H,11,12)(H,13,14)",WQFXJSOUBPGBGW-UHFFFAOYSA-N,Cc1nc(C)c(cc1C(O)=O)C(O)=O,-2.8089999999999997,0.0,1,G1
B-1915,acid red 18,"InChI=1S/C20H14N2O10S3.3Na/c23-16-7-5-11-9-12(33(24,25)26)10-18(35(30,31)32)19(11)20(16)22-21-15-6-8-17(34(27,28)29)14-4-2-1-3-13(14)15;;;/h1-10,21H,(H,24,25,26)(H,27,28,29)(H,30,31,32);;;/q;3*+1/p-3/b22-20+;;;",IVNZBWNBYXERPK-DZGBHZPSSA-K,[Na+].[Na+].[Na+].[O-][S](=O)(=O)c1cc2C=CC(=O)\C(=N/Nc3ccc(c4ccccc34)[S]([O-])(=O)=O)c2c(c1)[S]([O-])(=O)=O,-0.8783,0.0,1,G1
B-1917,"2,4(1h,3h)-pteridinedione, 1,3,6,7-tetramethyl-",InChI=1S/C10H12N4O2/c1-5-6(2)12-8-7(11-5)9(15)14(4)10(16)13(8)3/h1-4H3,RIUBVVOTTNDDIR-UHFFFAOYSA-N,CN1C(=O)N(C)c2nc(C)c(C)nc2C1=O,-1.3429,0.0,1,G1
B-1918,"butanoic acid, 4-nitrophenyl ester","InChI=1S/C10H11NO4/c1-2-3-10(12)15-9-6-4-8(5-7-9)11(13)14/h4-7H,2-3H2,1H3",DVDUMIQZEUTAGK-UHFFFAOYSA-N,CCCC(=O)Oc1ccc(cc1)[N+]([O-])=O,-3.9404,0.0,1,G1
B-1919,"1,2-naphthalenedione, 1-oxime","InChI=1S/C10H7NO2/c12-9-6-5-7-3-1-2-4-8(7)10(9)11-13/h1-6,12H",YXAOOTNFFAQIPZ-UHFFFAOYSA-N,Oc1ccc2ccccc2c1N=O,-2.9374,0.3486999999999998,2,G3
B-1920,"4,4'-dicyano-4,4'azo-di-valeric acid","InChI=1S/C12H16N4O4/c1-11(7-13,5-3-9(17)18)15-16-12(2,8-14)6-4-10(19)20/h3-6H2,1-2H3,(H,17,18)(H,19,20)/p-2/t11-,12+",VFXXTYGQYWRHJP-TXEJJXNPSA-L,C[C@@](CCC([O-])=O)(N=N[C@](C)(CCC([O-])=O)C#N)C#N,-2.0083,0.0,1,G1
B-1925,".beta.-alanine, n-methyl-","InChI=1S/C4H9NO2/c1-5-3-2-4(6)7/h5H,2-3H2,1H3,(H,6,7)",VDIPNVCWMXZNFY-UHFFFAOYSA-N,CNCCC(O)=O,-0.0543,0.0,1,G1
B-1927,"phosphoric acid, butyl diethyl ester","InChI=1S/C8H19O4P/c1-4-7-8-12-13(9,10-5-2)11-6-3/h4-8H2,1-3H3",DWSYMNWJOYKKCK-UHFFFAOYSA-N,CCCCO[P](=O)(OCC)OCC,-1.1466,0.0,1,G1
B-1928,"leucine, ethyl ester","InChI=1S/C8H17NO2/c1-4-11-8(10)7(9)5-6(2)3/h6-7H,4-5,9H2,1-3H3/t7-/m0/s1",QIGLJVBIRIXQRN-ZETCQYMHSA-N,CCOC(=O)[C@@H](N)CC(C)C,-0.5606,0.0,1,G1
B-1929,"n,n'-bis-phenylacetyl-cystine","InChI=1S/C22H24N2O6S2/c25-19(11-15-7-3-1-4-8-15)23-17(21(27)28)13-31-32-14-18(22(29)30)24-20(26)12-16-9-5-2-6-10-16/h1-10,17-18H,11-14H2,(H,23,25)(H,24,26)(H,27,28)(H,29,30)",DWRCRIMPBCLETK-UHFFFAOYSA-N,OC(=O)C(CSSCC(NC(=O)Cc1ccccc1)C(O)=O)NC(=O)Cc2ccccc2,-1.8330000000000002,0.0,1,G1
B-1930,diquat,"InChI=1S/C12H12N2/c1-3-7-13-9-10-14-8-4-2-6-12(14)11(13)5-1/h1-8H,9-10H2/q+2",SYJFEGQWDCRVNX-UHFFFAOYSA-N,C1C[n+]2ccccc2c3cccc[n+]13,-3.425,0.0,1,G1
B-1932,endothion,"InChI=1S/C9H13O6PS/c1-12-9-5-15-7(4-8(9)10)6-17-16(11,13-2)14-3/h4-5H,6H2,1-3H3",YCAGGFXSFQFVQL-UHFFFAOYSA-N,COC1=COC(=CC1=O)CS[P](=O)(OC)OC,0.7286,0.0,1,G1
B-1933,"phosphonic acid, (1-hydroxyethylidene)bis-","InChI=1S/C2H8O7P2/c1-2(3,10(4,5)6)11(7,8)9/h3H,1H3,(H2,4,5,6)(H2,7,8,9)",DBVJJBKOTRCVKF-UHFFFAOYSA-N,CC(O)([P](O)(O)=O)[P](O)(O)=O,0.5249,0.0,1,G1
B-1936,4-oxo-pent-2-enoic acid,"InChI=1S/C5H6O3/c1-4(6)2-3-5(7)8/h2-3H,1H3,(H,7,8)",XGTKSWVCNVUVHG-UHFFFAOYSA-N,CC(=O)C=CC(O)=O,-0.2332,0.0,1,G1