ID,Name,InChI,InChIKey,SMILES,Solubility,SD,Occurrences,Group
D-1894,2-isopropyl naphthalene,"InChI=1S/C13H14/c1-10(2)12-8-7-11-5-3-4-6-13(11)9-12/h3-10H,1-2H3",TVYVQNHYIHAJTD-UHFFFAOYSA-N,CC(C)c1ccc2ccccc2c1,-5.297999999999999,0.0,1,G1
D-1898,"octanedioic acid, diethy ester","InChI=1S/C12H22O4/c1-3-15-11(13)9-7-5-6-8-10-12(14)16-4-2/h3-10H2,1-2H3",PEUGOJXLBSIJQS-UHFFFAOYSA-N,CCOC(=O)CCCCCCC(=O)OCC,-2.53,0.0,1,G1
D-1908,9-methyl benz(a)anthracene,"InChI=1S/C19H14/c1-13-6-7-15-12-19-16(11-17(15)10-13)9-8-14-4-2-3-5-18(14)19/h2-12H,1H3",KYJPMPXTXCFCRM-UHFFFAOYSA-N,Cc1ccc2cc3c(ccc4ccccc34)cc2c1,-6.816,0.0,1,G1
D-1909,"l-tryptophan, n-acetyl, ethyl ester","InChI=1S/C15H18N2O3/c1-3-20-15(19)14(17(2)10-18)8-11-9-16-13-7-5-4-6-12(11)13/h4-7,9-10,14,16H,3,8H2,1-2H3/t14-/m0/s1",LYXGYFZZVMODTB-AWEZNQCLSA-N,CCOC(=O)[C@H](Cc1c[nH]c2ccccc12)N(C)C=O,-2.271,0.0,1,G1
D-1910,"1,6-heptadiyne","InChI=1S/C7H8/c1-3-5-7-6-4-2/h1-2H,5-7H2",RSPZSDWVQWRAEF-UHFFFAOYSA-N,C#CCCCC#C,-1.7469999999999999,0.0,1,G1
D-1911,"1,8-nonadiyne","InChI=1S/C9H12/c1-3-5-7-9-8-6-4-2/h1-2H,5-9H2",DMOVPHYFYSASTC-UHFFFAOYSA-N,C#CCCCCCC#C,-2.983,0.0,1,G1
D-1912,7-methyl-1-octanol,"InChI=1S/C9H20O/c1-9(2)7-5-3-4-6-8-10/h9-10H,3-8H2,1-2H3",QDTDKYHPHANITQ-UHFFFAOYSA-N,CC(C)CCCCCCO,-2.487,0.0,1,G1
D-1913,chlorflurecol,"InChI=1S/C14H9ClO3/c15-8-5-6-10-9-3-1-2-4-11(9)14(18,13(16)17)12(10)7-8/h1-7,18H,(H,16,17)",SVOAUHHKPGKPQK-UHFFFAOYSA-N,OC(=O)C1(O)c2ccccc2c3ccc(Cl)cc13,-4.1610000000000005,0.043361529288324444,3,G5
D-1914,medinoterb acetate,"InChI=1S/C13H16N2O6/c1-7-9(14(17)18)6-10(15(19)20)12(21-8(2)16)11(7)13(3,4)5/h6H,1-5H3",GZJNBGYLANALSV-UHFFFAOYSA-N,CC(=O)Oc1c(cc(c(C)c1C(C)(C)C)[N+]([O-])=O)[N+]([O-])=O,-4.4719999999999995,0.0,1,G1
D-1916,7-methylbenz(a)anthracene,"InChI=1S/C19H14/c1-13-16-8-4-3-7-15(16)12-19-17(13)11-10-14-6-2-5-9-18(14)19/h2-12H,1H3",DIIFUCUPDHMNIV-UHFFFAOYSA-N,Cc1c2ccccc2cc3c4ccccc4ccc13,-7.343,0.35150000000000015,2,G3
D-1917,tutin,"InChI=1S/C15H18O6/c1-5(2)6-7-12(17)20-8(6)9(16)13(3)14(4-19-14)10-11(21-10)15(7,13)18/h6-11,16,18H,1,4H2,2-3H3/t6-,7+,8+,9+,10+,11-,13-,14+,15-/m0/s1",CCAZWUJBLXKBAY-ULZPOIKGSA-N,CC(=C)[C@@H]1[C@H]2OC(=O)[C@@H]1[C@]3(O)[C@H]4O[C@H]4[C@]5(CO5)[C@]3(C)[C@@H]2O,-1.19,0.0,1,G1
D-1919,"trans-2,5-dimethylpiperazine","InChI=1S/C6H14N2/c1-5-3-8-6(2)4-7-5/h5-8H,3-4H2,1-2H3/p+2/t5-,6+",NSMWYRLQHIXVAP-OLQVQODUSA-P,C[C@H]1C[NH2+][C@H](C)C[NH2+]1,0.486,0.0,1,G1
D-1920,4'-((6-hydroxy-m-tolyl)azo)acetanilide,"InChI=1S/C15H15N3O2/c1-10-3-8-15(20)14(9-10)18-17-13-6-4-12(5-7-13)16-11(2)19/h3-9,17H,1-2H3,(H,16,19)/b18-14+",ZGLBGXHBFHCOAF-NBVRZTHBSA-N,CC(=O)Nc1ccc(N\N=C\2C=C(C)C=CC2=O)cc1,-5.358,0.0,1,G1
D-1922,"butanoic acid, 2-amino-, ()-","InChI=1S/C4H9NO2/c1-2-3(5)4(6)7/h3H,2,5H2,1H3,(H,6,7)",QWCKQJZIFLGMSD-UHFFFAOYSA-N,CCC(N)C(O)=O,0.28800000000000003,0.02046134567096374,3,G5
D-1925,"1,6-heptadiene","InChI=1S/C7H12/c1-3-5-7-6-4-2/h3-4H,1-2,5-7H2",GEAWFZNTIFJMHR-UHFFFAOYSA-N,C=CCCCC=C,-3.34,0.0,1,G1
D-1926,"1,1,3-trimethylcyclohexane","InChI=1S/C9H18/c1-8-5-4-6-9(2,3)7-8/h8H,4-7H2,1-3H3",PYOLJOJPIPCRDP-UHFFFAOYSA-N,CC1CCCC(C)(C)C1,-4.853,0.0,1,G1
D-1928,4-salicyloylmorpholine,"InChI=1S/C11H13NO3/c13-10-4-2-1-3-9(10)11(14)12-5-7-15-8-6-12/h1-4,13H,5-8H2",TUFGIGGYNZUDAL-UHFFFAOYSA-N,Oc1ccccc1C(=O)N2CCOCC2,-1.704,0.0,1,G1
D-1930,1-nonyne,"InChI=1S/C9H16/c1-3-5-7-9-8-6-4-2/h1H,4-9H2,2H3",OSSQSXOTMIGBCF-UHFFFAOYSA-N,CCCCCCCC#C,-4.093999999999999,0.0730000000000004,2,G3
D-1932,hyenanchin,"InChI=1S/C15H18O7/c1-5(2)14(18)6-11(17)22-8(14)7(16)12(3)13(4-20-13)9-10(21-9)15(6,12)19/h6-10,16,18-19H,1,4H2,2-3H3/t6-,7+,8-,9+,10-,12-,13+,14?,15-/m0/s1",DWCJGLPGZULWPZ-GEETXFABSA-N,CC(=C)C1(O)[C@H]2OC(=O)[C@@H]1[C@]3(O)[C@H]4O[C@H]4[C@]5(CO5)[C@]3(C)[C@@H]2O,-1.42,0.0,1,G1
D-1934,"2,2,5-trimethylhexane","InChI=1S/C9H20/c1-8(2)6-7-9(3,4)5/h8H,6-7H2,1-5H3",HHOSMYBYIHNXNO-UHFFFAOYSA-N,CC(C)CCC(C)(C)C,-5.047,0.0,1,G1
D-1935,chlorphenoxamide,"InChI=1S/C17H16Cl2N2O5/c18-16(19)17(23)20(9-10-22)11-12-1-5-14(6-2-12)26-15-7-3-13(4-8-15)21(24)25/h1-8,16,22H,9-11H2",ODCUSWJXZDHLKV-UHFFFAOYSA-N,OCCN(Cc1ccc(Oc2ccc(cc2)[N+]([O-])=O)cc1)C(=O)C(Cl)Cl,-5.124,0.0,1,G1
D-1938,cyanthoate,"InChI=1S/C10H19N2O4PS/c1-5-15-17(14,16-6-2)18-7-9(13)12-10(3,4)8-11/h5-7H2,1-4H3,(H,12,13)",TWDJIKFUVRYBJF-UHFFFAOYSA-N,CCO[P](=O)(OCC)SCC(=O)NC(C)(C)C#N,-0.624,0.0,1,G1
D-1941,"2-buten-1-ol, (z)-","InChI=1S/C4H8O/c1-2-3-4-5/h2-3,5H,4H2,1H3/b3-2-",WCASXYBKJHWFMY-IHWYPQMZSA-N,C\C=C/CO,0.36200000000000004,0.39,2,G3
D-1942,dl-2-octanol,"InChI=1S/C8H18O/c1-3-4-5-6-7-8(2)9/h8-9H,3-7H2,1-2H3",SJWFXCIHNDVPSH-UHFFFAOYSA-N,CCCCCCC(C)O,-2.036,0.030930112754401655,4,G5
D-1944,ajmaline,"InChI=1S/C20H26N2O2/c1-3-10-11-8-14-17-20(12-6-4-5-7-13(12)21(17)2)9-15(16(11)18(20)23)22(14)19(10)24/h4-7,10-11,14-19,23-24H,3,8-9H2,1-2H3/t10-,11-,14-,15-,16?,17-,18?,19+,20+/m0/s1",CJDRUOGAGYHKKD-QFTSDIPNSA-N,CC[C@@H]1[C@@H](O)N2[C@H]3C[C@@H]1C4C(O)[C@@]5(C[C@H]24)[C@H]3N(C)c6ccccc56,-2.824,0.0,1,G1
D-1948,"bicyclo 2.2.1 heptan-2-one, 1,3,3-trimethyl-, (","InChI=1S/C10H16O/c1-9(2)7-4-5-10(3,6-7)8(9)11/h7H,4-6H2,1-3H3/t7-,10+/m1/s1",LHXDLQBQYFFVNW-XCBNKYQSSA-N,CC1(C)[C@@H]2CC[C@@](C)(C2)C1=O,-1.85,0.0,1,G1
D-1950,3-chloro-2-nitrobenzoic acid,"InChI=1S/C7H4ClNO4/c8-5-3-1-2-4(7(10)11)6(5)9(12)13/h1-3H,(H,10,11)/p-1",VCHSXYHBMFKRBK-UHFFFAOYSA-M,[O-]C(=O)c1cccc(Cl)c1[N+]([O-])=O,-2.6319999999999997,0.0,1,G1
D-1951,2-butenenitrile,"InChI=1S/C4H5N/c1-2-3-4-5/h2-3H,1H3/b3-2+",NKKMVIVFRUYPLQ-NSCUHMNNSA-N,C/C=C/C#N,-0.429,0.0,1,G1
D-1952,1-hexen-3-ol,"InChI=1S/C6H12O/c1-3-5-6(7)4-2/h4,6-7H,2-3,5H2,1H3",BVOSSZSHBZQJOI-UHFFFAOYSA-N,CCCC(O)C=C,-0.599,0.0,1,G1
D-1957,"2,6-octadienal, 3,7-dimethyl-","InChI=1S/C10H16O/c1-9(2)5-4-6-10(3)7-8-11/h5,7-8H,4,6H2,1-3H3/b10-7+",WTEVQBCEXWBHNA-JXMROGBWSA-N,CC(C)=CCC\C(C)=C\C=O,-2.055,0.0,1,G1
D-1960,cyclopropyl ethyl ether,"InChI=1S/C5H10O/c1-2-6-5-3-4-5/h5H,2-4H2,1H3",LZTCEQQSARXBHE-UHFFFAOYSA-N,CCOC1CC1,-0.6409999999999999,0.0,1,G1
D-1961,aphidan,"InChI=1S/C9H21O3PS3/c1-6-16(10)7-15-13(14,11-8(2)3)12-9(4)5/h8-9H,6-7H2,1-5H3",KOTOUBGHZHWCCJ-UHFFFAOYSA-N,CC[S](=O)CS[P](=S)(OC(C)C)OC(C)C,-2.307,0.0,1,G1
D-1963,endrocide (endox) (coumatetralyl),"InChI=1S/C19H16O3/c20-18-15-9-3-4-11-16(15)22-19(21)17(18)14-10-5-7-12-6-1-2-8-13(12)14/h1-4,6,8-9,11,14,21H,5,7,10H2",KIGBUEKEZHTCDR-UHFFFAOYSA-N,OC1=C(C2CCCc3ccccc23)C(=O)c4ccccc4O1,-4.864,0.0,1,G1
D-1964,4-nonanol,"InChI=1S/C9H20O/c1-3-5-6-8-9(10)7-4-2/h9-10H,3-8H2,1-2H3",IXUOEGRSQCCEHB-UHFFFAOYSA-N,CCCCCC(O)CCC,-2.591,0.0,1,G1
D-1965,"cyclohexene, 1-methyl-4-(1-methylethenyl)-, (r)","InChI=1S/C10H16/c1-8(2)10-6-4-9(3)5-7-10/h4,10H,1,5-7H2,2-3H3/t10-/m0/s1",XMGQYMWWDOXHJM-JTQLQIEISA-N,CC(=C)[C@@H]1CCC(=CC1)C,-3.9939999999999998,0.0,1,G1
D-1966,3-chlorocrotonic acid,"InChI=1S/C4H5ClO2/c1-3(5)2-4(6)7/h2H,1H3,(H,6,7)/b3-2+",XBOTUWGQYMHUFO-NSCUHMNNSA-N,C\C(Cl)=C/C(O)=O,-0.605,0.07250000000000001,2,G3
D-1969,trichothecin,"InChI=1S/C19H24O5/c1-5-6-16(21)24-14-8-15-19(10-22-19)18(14,4)17(3)9-12(20)11(2)7-13(17)23-15/h5-7,13-15H,8-10H2,1-4H3/b6-5-/t13-,14-,15-,17+,18-,19-/m1/s1",LJWZOKOFCBPNAG-SMRSBHFRSA-N,C\C=C/C(=O)O[C@@H]1C[C@H]2O[C@@H]3C=C(C)C(=O)C[C@]3(C)[C@]1(C)[C@@]24CO4,-2.92,0.0,1,G1
D-1971,2-methoxybutane,"InChI=1S/C5H12O/c1-4-5(2)6-3/h5H,4H2,1-3H3",FVNIMHIOIXPIQT-UHFFFAOYSA-N,CCC(C)OC,-0.73,0.0,1,G1
D-1972,"trans-1,2-dimethylcyclohexane","InChI=1S/C8H16/c1-7-5-3-4-6-8(7)2/h7-8H,3-6H2,1-2H3/t7-,8-/m0/s1",KVZJLSYJROEPSQ-YUMQZZPRSA-N,C[C@H]1CCCC[C@@H]1C,-4.334,0.0,1,G1
D-1978,"2,3-dichlorobutane","InChI=1S/C4H8Cl2/c1-3(5)4(2)6/h3-4H,1-2H3",RMISVOPUIFJTEO-UHFFFAOYSA-N,CC(Cl)C(C)Cl,-2.354,0.17300000000000004,2,G3
D-1980,tetramethrin,"InChI=1S/C19H25NO4/c1-11(2)9-14-15(19(14,3)4)18(23)24-10-20-16(21)12-7-5-6-8-13(12)17(20)22/h9,14-15H,5-8,10H2,1-4H3/t14-,15+/m1/s1",CXBMCYHAMVGWJQ-CABCVRRESA-N,CC(C)=C[C@@H]1[C@@H](C(=O)OCN2C(=O)C3=C(CCCC3)C2=O)C1(C)C,-4.8580000000000005,0.19994999999999985,2,G3
D-1981,crotoxyphos (ciodrin),"InChI=1S/C14H19O6P/c1-11(20-21(16,17-3)18-4)10-14(15)19-12(2)13-8-6-5-7-9-13/h5-10,12H,1-4H3/b11-10+",XXXSILNSXNPGKG-ZHACJKMWSA-N,CO[P](=O)(OC)OC(/C)=C/C(=O)OC(C)c1ccccc1,-2.497,0.0,1,G1
D-1982,"benzenamine, 2-bromo-5-nitro-","InChI=1S/C6H5BrN2O2/c7-5-2-1-4(9(10)11)3-6(5)8/h1-3H,8H2",BAAUCXCLMDAZEL-UHFFFAOYSA-N,Nc1cc(ccc1Br)[N+]([O-])=O,-3.5580000000000003,0.0,1,G1
D-1984,ethoprophos,"InChI=1S/C8H19O2PS2/c1-4-7-12-11(9,10-6-3)13-8-5-2/h4-8H2,1-3H3",VJYFKVYYMZPMAB-UHFFFAOYSA-N,CCCS[P](=O)(OCC)SCCC,-2.509,0.0,1,G1
D-1985,"furan, tetrahydro-3-methyl-","InChI=1S/C5H10O/c1-5-2-3-6-4-5/h5H,2-4H2,1H3",LJPCNSSTRWGCMZ-UHFFFAOYSA-N,CC1CCOC1,0.09,0.0,1,G1
D-1986,"dl-2,3-dimethylsuccinic acid","InChI=1S/C6H10O4/c1-3(5(7)8)4(2)6(9)10/h3-4H,1-2H3,(H,7,8)(H,9,10)/p-2/t3-,4+",KLZYRCVPDWTZLH-ZXZARUISSA-L,C[C@H]([C@H](C)C([O-])=O)C([O-])=O,-0.688,0.0,1,G1
D-1988,"2-propanol, 1,3-dichloro-, phosphate (3:1)","InChI=1S/C9H15Cl6O4P/c10-1-7(2-11)17-20(16,18-8(3-12)4-13)19-9(5-14)6-15/h7-9H,1-6H2",ASLWPAWFJZFCKF-UHFFFAOYSA-N,ClCC(CCl)O[P](=O)(OC(CCl)CCl)OC(CCl)CCl,-4.789,0.0,1,G1
D-1990,phenmedipham,"InChI=1S/C16H16N2O4/c1-11-5-3-6-12(9-11)18-16(20)22-14-8-4-7-13(10-14)17-15(19)21-2/h3-10H,1-2H3,(H,17,19)(H,18,20)",IDOWTHOLJBTAFI-UHFFFAOYSA-N,COC(=O)Nc1cccc(OC(=O)Nc2cccc(C)c2)c1,-4.779,0.015499999999999847,2,G3
D-1992,2-butanamine,"InChI=1S/C4H11N/c1-3-4(2)5/h4H,3,5H2,1-2H3",BHRZNVHARXXAHW-UHFFFAOYSA-N,CCC(C)N,0.185,0.0,1,G1
D-1994,"cyclohexanone, 5-methyl-2-(1-methylethyl)-, (2s","InChI=1S/C10H18O/c1-7(2)9-5-4-8(3)6-10(9)11/h7-9H,4-6H2,1-3H3/t8-,9+/m1/s1",NFLGAXVYCFJBMK-BDAKNGLRSA-N,CC(C)[C@@H]1CC[C@@H](C)CC1=O,-2.492,0.0,1,G1
D-1995,"2,2-diethyl-1-pentanol","InChI=1S/C9H20O/c1-4-7-9(5-2,6-3)8-10/h10H,4-8H2,1-3H3",PHSORZZLPKIHMG-UHFFFAOYSA-N,CCCC(CC)(CC)CO,-2.419,0.0,1,G1
D-1998,benzyl morphine,"InChI=1S/C24H25NO3/c1-25-12-11-24-17-8-9-19(26)23(24)28-22-20(27-14-15-5-3-2-4-6-15)10-7-16(21(22)24)13-18(17)25/h2-10,17-19,23,26H,11-14H2,1H3/t17-,18+,19-,23-,24-/m0/s1",RDJGWRFTDZZXSM-RNWLQCGYSA-N,CN1CC[C@]23[C@H]4Oc5c(OCc6ccccc6)ccc(C[C@@H]1[C@@H]2C=C[C@@H]4O)c35,-2.9730000000000003,0.0,1,G1
D-2000,3-(2-methylphenoxy)pyridazine,"InChI=1S/C11H10N2O/c1-9-5-2-3-6-10(9)14-11-7-4-8-12-13-11/h2-8H,1H3",DNPSYFHJYIRREW-UHFFFAOYSA-N,Cc1ccccc1Oc2cccnn2,-1.969,0.0,1,G1
D-2003,"4,4-dimethyloctane","InChI=1S/C10H22/c1-5-7-9-10(3,4)8-6-2/h5-9H2,1-4H3",ZMEDGZAGMLTROM-UHFFFAOYSA-N,CCCCC(C)(C)CCC,-4.811,0.0,1,G1
D-2004,".alpha.-d-glucofuranose,","InChI=1S/C8H11Cl3O6/c9-8(10,11)7-16-5-3(14)4(2(13)1-12)15-6(5)17-7/h2-7,12-14H,1H2/t2?,3-,4+,5+,6?,7+/m0/s1",OJYGBLRPYBAHRT-OPKHMCHVSA-N,OCC(O)[C@H]1OC2O[C@@H](O[C@@H]2[C@H]1O)C(Cl)(Cl)Cl,-1.8430000000000002,0.0,1,G1
D-2006,carbetamide,"InChI=1S/C12H16N2O3/c1-3-13-11(15)9(2)17-12(16)14-10-7-5-4-6-8-10/h4-9H,3H2,1-2H3,(H,13,15)(H,14,16)/t9-/m0/s1",AMRQXHFXNZFDCH-VIFPVBQESA-N,CCNC(=O)[C@H](C)OC(=O)Nc1ccccc1,-1.829,0.0,1,G1
D-2007,cyclopropyl vinyl ether,"InChI=1S/C5H8O/c1-2-6-5-3-4-5/h2,5H,1,3-4H2",XRCVFFQSIMHODB-UHFFFAOYSA-N,C=COC1CC1,-1.1,0.0,1,G1
D-2008,"benzeneacetic acid, .alpha.-hydroxy-, (s)-","InChI=1S/C8H8O3/c9-7(8(10)11)6-4-2-1-3-5-6/h1-5,7,9H,(H,10,11)/t7-/m0/s1",IWYDHOAUDWTVEP-ZETCQYMHSA-N,O[C@H](C(O)=O)c1ccccc1,0.158,0.0,1,G1
D-2009,isopropyl tert-butyl ether,"InChI=1S/C7H16O/c1-6(2)8-7(3,4)5/h6H,1-5H3",HNFSPSWQNZVCTB-UHFFFAOYSA-N,CC(C)OC(C)(C)C,-2.366,0.0,1,G1
D-2012,loganin,"InChI=1S/C17H26O10/c1-6-9(19)3-7-8(15(23)24-2)5-25-16(11(6)7)27-17-14(22)13(21)12(20)10(4-18)26-17/h5-7,9-14,16-22H,3-4H2,1-2H3/t6-,7+,9-,10+,11+,12+,13-,14+,16-,17-/m0/s1",AMBQHHVBBHTQBF-UOUCRYGSSA-N,COC(=O)C1=CO[C@@H](O[C@@H]2O[C@H](CO)[C@@H](O)[C@H](O)[C@H]2O)[C@@H]3[C@@H](C)[C@@H](O)C[C@H]13,-0.591,0.0,1,G1
D-2016,"3,5-dimethyl-4-heptanol","InChI=1S/C9H20O/c1-5-7(3)9(10)8(4)6-2/h7-10H,5-6H2,1-4H3",ZKXITRNXHWEQJU-UHFFFAOYSA-N,CCC(C)C(O)C(C)CC,-2.51,0.0,1,G1
D-2018,"benzoic acid, 4-amino-, dodecyl ester","InChI=1S/C19H31NO2/c1-2-3-4-5-6-7-8-9-10-11-16-22-19(21)17-12-14-18(20)15-13-17/h12-15H,2-11,16,20H2,1H3",IXYYMEVNJZMVBN-UHFFFAOYSA-N,CCCCCCCCCCCCOC(=O)c1ccc(N)cc1,-7.8,0.0,1,G1
D-2022,anisomycin,"InChI=1S/C14H19NO4/c1-9(16)19-14-12(15-8-13(14)17)7-10-3-5-11(18-2)6-4-10/h3-6,12-15,17H,7-8H2,1-2H3/t12-,13+,14+/m0/s1",YKJYKKNCCRKFSL-BFHYXJOUSA-N,COc1ccc(C[C@@H]2NC[C@@H](O)[C@@H]2OC(C)=O)cc1,-1.608,0.0,1,G1
D-2023,dimethamrtryne,"InChI=1S/C11H21N5S/c1-6-12-9-14-10(13-8(4)7(2)3)16-11(15-9)17-5/h7-8H,6H2,1-5H3,(H2,12,13,14,15,16)",IKYICRRUVNIHPP-UHFFFAOYSA-N,CCNc1nc(NC(C)C(C)C)nc(SC)n1,-3.708,0.0,1,G1
D-2026,heptenophos,"InChI=1S/C9H12ClO4P/c1-12-15(11,13-2)14-9-7-5-3-4-6(7)8(9)10/h3-4,6-7H,5H2,1-2H3",GBAWQJNHVWMTLU-UHFFFAOYSA-N,CO[P](=O)(OC)OC1=C(Cl)C2C=CCC12,-2.001,0.0,1,G1
D-2027,"5-pyrimidinecarboxylic acid,","InChI=1S/C5H4N2O4/c8-3-2(4(9)10)1-6-5(11)7-3/h1H,(H,9,10)(H2,6,7,8,11)",ZXYAAVBXHKCJJB-UHFFFAOYSA-N,OC(=O)C1=CNC(=O)NC1=O,-1.9380000000000002,0.0,1,G1
D-2032,chlormephos,"InChI=1S/C5H12ClO2PS2/c1-3-7-9(10,8-4-2)11-5-6/h3-5H2,1-2H3",QGTYWWGEWOBMAK-UHFFFAOYSA-N,CCO[P](=S)(OCC)SCCl,-3.592,0.0,1,G1
D-2033,thiazafluron,"InChI=1S/C6H7F3N4OS/c1-10-4(14)13(2)5-12-11-3(15-5)6(7,8)9/h1-2H3,(H,10,14)",BBJPZPLAZVZTGR-UHFFFAOYSA-N,CNC(=O)N(C)c1sc(nn1)C(F)(F)F,-2.0580000000000003,0.039000000000000146,2,G3
D-2035,secbumeton,"InChI=1S/C10H19N5O/c1-5-7(3)12-9-13-8(11-6-2)14-10(15-9)16-4/h7H,5-6H2,1-4H3,(H2,11,12,13,14,15)",ZJMZZNVGNSWOOM-UHFFFAOYSA-N,CCNc1nc(NC(C)CC)nc(OC)n1,-2.575,0.007500000000000062,2,G3
D-2037,"1,2-dichloropropene","InChI=1S/C3H4Cl2/c1-3(5)2-4/h2H,1H3",PPKPKFIWDXDAGC-UHFFFAOYSA-N,CC(Cl)=CCl,-1.614,0.0,1,G1
D-2039,3-chlorophthalic acid,"InChI=1S/C8H5ClO4/c9-5-3-1-2-4(7(10)11)6(5)8(12)13/h1-3H,(H,10,11)(H,12,13)",BKFXSOCDAQACQM-UHFFFAOYSA-N,OC(=O)c1cccc(Cl)c1C(O)=O,-0.976,0.0,1,G1
D-2040,"3-ethoxy-1,1-dihydroxy-2-butanone","InChI=1S/C6H12O4/c1-3-10-4(2)5(7)6(8)9/h4,6,8-9H,3H2,1-2H3",YRCRRHNVYVFNTM-UHFFFAOYSA-N,CCOC(C)C(=O)C(O)O,-0.171,0.0,1,G1
D-2045,etofenamate,"InChI=1S/C18H18F3NO4/c19-18(20,21)13-4-3-5-14(12-13)22-16-7-2-1-6-15(16)17(24)26-11-10-25-9-8-23/h1-7,12,22-23H,8-11H2",XILVEPYQJIOVNB-UHFFFAOYSA-N,OCCOCCOC(=O)c1ccccc1Nc2cccc(c2)C(F)(F)F,-5.3629999999999995,0.0,1,G1
D-2046,5-methyl-benzo(a)pyrene,"InChI=1S/C21H14/c1-13-11-16-7-4-6-14-9-10-18-17-8-3-2-5-15(17)12-19(13)21(18)20(14)16/h2-12H,1H3",JQANOYBJRYYFQI-UHFFFAOYSA-N,Cc1cc2cccc3ccc4c5ccccc5cc1c4c23,-8.522,0.0,1,G1
D-2047,chlomethoxyfen,"InChI=1S/C13H9Cl2NO4/c1-19-13-7-9(3-4-11(13)16(17)18)20-12-5-2-8(14)6-10(12)15/h2-7H,1H3",DXXVCXKMSWHGTF-UHFFFAOYSA-N,COc1cc(Oc2ccc(Cl)cc2Cl)ccc1[N+]([O-])=O,-6.02,0.0,1,G1
D-2051,tebuthiuron,"InChI=1S/C9H16N4OS/c1-9(2,3)6-11-12-8(15-6)13(5)7(14)10-4/h1-5H3,(H,10,14)",HBPDKDSFLXWOAE-UHFFFAOYSA-N,CNC(=O)N(C)c1sc(nn1)C(C)(C)C,-1.9969999999999999,0.01849999999999996,2,G3
D-2052,"2-propenoic acid, 7-bromo-5-chloro-8-quinolinyl","InChI=1S/C12H7BrClNO2/c1-2-10(16)17-12-8(13)6-9(14)7-4-3-5-15-11(7)12/h2-6H,1H2",YDNLKBDXQCHOTH-UHFFFAOYSA-N,Clc1cc(Br)c(OC(=O)C=C)c2ncccc12,-4.717,0.0,1,G1
D-2053,butamifos,"InChI=1S/C13H21N2O4PS/c1-5-11(4)14-20(21,18-6-2)19-13-9-10(3)7-8-12(13)15(16)17/h7-9,11H,5-6H2,1-4H3,(H,14,21)",OEYOMNZEMCPTKN-UHFFFAOYSA-N,CCO[P](=S)(NC(C)CC)Oc1cc(C)ccc1[N+]([O-])=O,-4.814,0.04205000000000014,2,G3
D-2054,phosdiphen,"InChI=1S/C14H11Cl4O4P/c1-2-20-23(19,21-13-5-3-9(15)7-11(13)17)22-14-6-4-10(16)8-12(14)18/h3-8H,2H2,1H3",HEMINMLPKZELPP-UHFFFAOYSA-N,CCO[P](=O)(Oc1ccc(Cl)cc1Cl)Oc2ccc(Cl)cc2Cl,-5.774,0.0,1,G1
D-2055,2-methyl-3-hexyne,"InChI=1S/C7H12/c1-4-5-6-7(2)3/h7H,4H2,1-3H3",POBOUPFSQKXZFZ-UHFFFAOYSA-N,CCC#CC(C)C,-2.745,0.0,1,G1
D-2056,isothioate,"InChI=1S/C7H17O2PS3/c1-7(2)12-5-6-13-10(11,8-3)9-4/h7H,5-6H2,1-4H3",SPCNPOWOBZQWJK-UHFFFAOYSA-N,CO[P](=S)(OC)SCCSC(C)C,-3.429,0.0,1,G1
D-2058,tiocarbazil,"InChI=1S/C16H25NOS/c1-5-13(3)17(14(4)6-2)16(18)19-12-15-10-8-7-9-11-15/h7-11,13-14H,5-6,12H2,1-4H3",PHSUVQBHRAWOQD-UHFFFAOYSA-N,CCC(C)N(C(C)CC)C(=O)SCc1ccccc1,-5.048,0.0,1,G1
D-2059,"2-amino-3,5-dichlorobenzamide","InChI=1S/C7H6Cl2N2O/c8-3-1-4(7(11)12)6(10)5(9)2-3/h1-2H,10H2,(H2,11,12)",PRKRQUUATBDWTL-UHFFFAOYSA-N,NC(=O)c1cc(Cl)cc(Cl)c1N,-2.081,0.0,1,G1
D-2060,"benzoic acid, 4-amino-, nonyl ester","InChI=1S/C16H25NO2/c1-2-3-4-5-6-7-8-13-19-16(18)14-9-11-15(17)12-10-14/h9-12H,2-8,13,17H2,1H3",KKGIDNSPWHBLLE-UHFFFAOYSA-N,CCCCCCCCCOC(=O)c1ccc(N)cc1,-6.001,0.0,1,G1
D-2062,baysan (bay meb 6401),"InChI=1S/C15H17ClN2O2/c1-15(2,3)13(19)14(18-9-8-17-10-18)20-12-6-4-11(16)5-7-12/h4-10,14H,1-3H3",OWEGWHBOCFMBLP-UHFFFAOYSA-N,CC(C)(C)C(=O)C(Oc1ccc(Cl)cc1)n2ccnc2,-4.726,0.0,1,G1
D-2063,sulindac,"InChI=1S/C20H17FO3S/c1-12-17(9-13-3-6-15(7-4-13)25(2)24)16-8-5-14(21)10-19(16)18(12)11-20(22)23/h3-10H,11H2,1-2H3,(H,22,23)/b17-9-",MLKXDPUZXIRXEP-MFOYZWKCSA-N,CC\1=C(CC(O)=O)c2cc(F)ccc2C1=C\c3ccc(cc3)[S](C)=O,-4.552,0.2240000000000002,2,G3
D-2066,dimethyl carbate,"InChI=1S/C11H14O4/c1-14-10(12)8-6-3-4-7(5-6)9(8)11(13)15-2/h3-4,6-9H,5H2,1-2H3/t6?,7?,8-,9+",VGQLNJWOULYVFV-WZENYGAOSA-N,COC(=O)[C@@H]1C2CC(C=C2)[C@@H]1C(=O)OC,-1.202,0.0,1,G1
D-2067,pendimethalin,"InChI=1S/C13H19N3O4/c1-5-10(6-2)14-12-11(15(17)18)7-8(3)9(4)13(12)16(19)20/h7,10,14H,5-6H2,1-4H3",CHIFOSRWCNZCFN-UHFFFAOYSA-N,CCC(CC)Nc1c(cc(C)c(C)c1[N+]([O-])=O)[N+]([O-])=O,-5.972,0.018999999999999684,2,G3
D-2068,methoprene,"InChI=1S/C19H34O3/c1-15(2)22-18(20)14-17(4)11-8-10-16(3)12-9-13-19(5,6)21-7/h8,11,14-16H,9-10,12-13H2,1-7H3/b11-8+,17-14+",NFGXHKASABOEEW-LDRANXPESA-N,COC(C)(C)CCCC(C)C\C=C\C(C)=C\C(=O)OC(C)C,-5.346,0.0,1,G1
D-2069,hydroprene,"InChI=1S/C17H30O2/c1-6-19-17(18)13-16(5)12-8-11-15(4)10-7-9-14(2)3/h8,12-15H,6-7,9-11H2,1-5H3/b12-8+,16-13+",FYQGBXGJFWXIPP-UEVLXMDPSA-N,CCOC(=O)\C=C(C)\C=C\CC(C)CCCC(C)C,-5.693,0.2841999999999998,2,G3
D-2073,"benzeneacetic acid, alpha-(acetyloxy)-, (r)-","InChI=1S/C10H10O4/c1-7(11)14-9(10(12)13)8-5-3-2-4-6-8/h2-6,9H,1H3,(H,12,13)/t9-/m1/s1",OBCUSTCTKLTMBX-SECBINFHSA-N,CC(=O)O[C@@H](C(O)=O)c1ccccc1,-1.2309999999999999,0.0,1,G1
D-2074,pretilchlor,"InChI=1S/C17H26ClNO2/c1-4-11-21-12-10-19(16(20)13-18)17-14(5-2)8-7-9-15(17)6-3/h7-9H,4-6,10-13H2,1-3H3",YLPGTOIOYRQOHV-UHFFFAOYSA-N,CCCOCCN(C(=O)CCl)c1c(CC)cccc1CC,-3.795,0.0,1,G1
D-2079,decamethrin,"InChI=1S/C22H19Br2NO3/c1-22(2)17(12-19(23)24)20(22)21(26)28-18(13-25)14-7-6-10-16(11-14)27-15-8-4-3-5-9-15/h3-12,17-18,20H,1-2H3/t17-,18+,20-/m0/s1",OWZREIFADZCYQD-NSHGMRRFSA-N,CC1(C)[C@@H](C=C(Br)Br)[C@H]1C(=O)O[C@H](C#N)c2cccc(Oc3ccccc3)c2,-8.402000000000001,0.0,1,G1
D-2084,triclopyr,"InChI=1S/C7H4Cl3NO3/c8-3-1-4(9)7(11-6(3)10)14-2-5(12)13/h1H,2H2,(H,12,13)",REEQLXCGVXDJSQ-UHFFFAOYSA-N,OC(=O)COc1nc(Cl)c(Cl)cc1Cl,-2.766,0.006999999999999895,2,G3
D-2087,"d-alaninic acid,","InChI=1S/C19H19ClFNO3/c1-12(2)25-19(24)13(3)22(15-9-10-17(21)16(20)11-15)18(23)14-7-5-4-6-8-14/h4-13H,1-3H3/t13-/m0/s1",IKVXBIIHQGXQRQ-ZDUSSCGKSA-N,CC(C)OC(=O)[C@H](C)N(C(=O)c1ccccc1)c2ccc(F)c(Cl)c2,-4.561,0.03964999999999996,2,G3
D-2091,propiconazole,"InChI=1S/C15H17Cl2N3O2/c1-2-3-12-7-21-15(22-12,8-20-10-18-9-19-20)13-5-4-11(16)6-14(13)17/h4-6,9-10,12H,2-3,7-8H2,1H3",STJLVHWMYQXCPB-UHFFFAOYSA-N,CCCC1COC(Cn2cncn2)(O1)c3ccc(Cl)cc3Cl,-3.4930000000000003,0.0,1,G1
D-2093,flumetralin,"InChI=1S/C16H12ClF4N3O4/c1-2-22(8-10-11(17)4-3-5-12(10)18)15-13(23(25)26)6-9(16(19,20)21)7-14(15)24(27)28/h3-7H,2,8H2,1H3",PWNAWOCHVWERAR-UHFFFAOYSA-N,CCN(Cc1c(F)cccc1Cl)c2c(cc(cc2[N+]([O-])=O)C(F)(F)F)[N+]([O-])=O,-6.625,0.07750000000000012,2,G3
D-2096,fenitropan,"InChI=1S/C13H15NO6/c1-9(15)19-8-12(14(17)18)13(20-10(2)16)11-6-4-3-5-7-11/h3-7,12-13H,8H2,1-2H3/t12-,13+/m1/s1",AYBALPYBYZFKDS-OLZOCXBDSA-N,CC(=O)OC[C@H]([C@@H](OC(C)=O)c1ccccc1)[N+]([O-])=O,-3.972,0.0,1,G1
D-2097,cyromazine,"InChI=1S/C6H10N6/c7-4-10-5(8)12-6(11-4)9-3-1-2-3/h3H,1-2H2,(H5,7,8,9,10,11,12)",LVQDKIWDGQRHTE-UHFFFAOYSA-N,Nc1nc(N)nc(NC2CC2)n1,-1.179,0.034499999999999975,2,G3
D-2100,fenthhiaprop ethyl,"InChI=1S/C18H16ClNO4S/c1-3-22-17(21)11(2)23-13-5-4-6-14(10-13)24-18-20-15-8-7-12(19)9-16(15)25-18/h4-11H,3H2,1-2H3",MDTRRKVOSSZNCC-UHFFFAOYSA-N,CCOC(=O)C(C)Oc1cccc(Oc2sc3cc(Cl)ccc3n2)c1,-5.6739999999999995,0.0,1,G1
D-2106,fluazifop-butyl,"InChI=1S/C19H20F3NO4/c1-3-4-11-25-18(24)13(2)26-15-6-8-16(9-7-15)27-17-10-5-14(12-23-17)19(20,21)22/h5-10,12-13H,3-4,11H2,1-2H3",VAIZTNZGPYBOGF-UHFFFAOYSA-N,CCCCOC(=O)C(C)Oc1ccc(Oc2ccc(cn2)C(F)(F)F)cc1,-5.584,0.0,1,G1