ID,Name,InChI,InChIKey,SMILES,Solubility,SD,Occurrences,Group
C-2024,6-(s-propanoyloxymethyl)mercaptopurine,"InChI=1S/C9H10N4O2S/c1-2-6(14)15-5-16-9-7-8(11-3-10-7)12-4-13-9/h3-4H,2,5H2,1H3,(H,10,11,12,13)",WQEDLDHMYLYHIP-UHFFFAOYSA-N,CCC(=O)OCSC1=NC=NC2=C1N=C[NH]2,-2.39,0.0,1,G1
C-2026,"2-(2,4-dichlorophenoxy)ethyl sulfate; 2,4-des; sulfuric acid mono[2-(2,4-dichlorophenoxy)ethyl] ester","InChI=1S/C8H8Cl2O5S/c9-6-1-2-8(7(10)5-6)14-3-4-15-16(11,12)13/h1-2,5H,3-4H2,(H,11,12,13)",HJEINPVZRDJRBY-UHFFFAOYSA-N,O[S](=O)(=O)OCCOC1=C(Cl)C=C(Cl)C=C1,-0.06,0.0,1,G1
C-2028,cyclacillin;  wy-4508;   6-(1-aminocyclohexanecarboxamido)penicillanic acid,"InChI=1S/C15H23N3O4S/c1-14(2)9(12(20)21)18-10(19)8(11(18)23-14)17-13(22)15(16)6-4-3-5-7-15/h8-9,11H,3-7,16H2,1-2H3,(H,17,22)(H,20,21)",HGBLNBBNRORJKI-UHFFFAOYSA-N,CC1(C)SC2C(NC(=O)C3(N)CCCCC3)C(=O)N2C1C(O)=O,-1.04,0.0,1,G1
C-2029,n-(3-tolyl)anthranilic  acid;  2-(3-tolylamino)benzoic acid,"InChI=1S/C14H13NO2/c1-10-5-4-6-11(9-10)15-13-8-3-2-7-12(13)14(16)17/h2-9,15H,1H3,(H,16,17)",JODCQKTVDXZQEP-UHFFFAOYSA-N,CC1=CC=CC(=C1)NC2=CC=CC=C2C(O)=O,-5.06,0.0,1,G1
C-2030,"2,4,6-trinitro-3-cresol;  3-methyl-2,4,6-trinitrophenol","InChI=1S/C7H5N3O7/c1-3-4(8(12)13)2-5(9(14)15)7(11)6(3)10(16)17/h2,11H,1H3",YYGJRRYSYLLCQH-UHFFFAOYSA-N,CC1=C(C(=C(C=C1[N+]([O-])=O)[N+]([O-])=O)O)[N+]([O-])=O,-2.04,0.0,1,G1
C-2031,"2,4-diamino-6,7-diethylpteridine","InChI=1S/C10H14N6/c1-3-5-6(4-2)14-9-7(13-5)8(11)15-10(12)16-9/h3-4H2,1-2H3,(H4,11,12,14,15,16)",BUZKILZDXOORCH-UHFFFAOYSA-N,CCC1=NC2=C(N=C1CC)C(=NC(=N2)N)N,-3.27,0.0,1,G1
C-2032,"4-amino-6,7-diethyl-1h-pteridin-2-one;  4-amino-6,7-diethyl-2-hydroxypteridine","InChI=1S/C10H13N5O/c1-3-5-6(4-2)13-9-7(12-5)8(11)14-10(16)15-9/h3-4H2,1-2H3,(H3,11,13,14,15,16)",UNOWZWFKTDNJLH-UHFFFAOYSA-N,CCC1=NC2=C(N=C1CC)C(=NC(=O)N2)N,-3.55,0.0,1,G1
C-2033,"2-amino-6,7-diethyl-3h-pteridin-4-one;  2-amino-6,7-diethyl-4-hydroxypteridine","InChI=1S/C10H13N5O/c1-3-5-6(4-2)13-8-7(12-5)9(16)15-10(11)14-8/h3-4H2,1-2H3,(H3,11,13,14,15,16)",GUJHFRPMSQFYJM-UHFFFAOYSA-N,CCC1=NC2=C(N=C1CC)C(=O)NC(=N2)N,-4.28,0.0,1,G1
C-2034,1-methylphenanthrene,"InChI=1S/C15H12/c1-11-5-4-8-15-13(11)10-9-12-6-2-3-7-14(12)15/h2-10H,1H3",DOWJXOHBNXRUOD-UHFFFAOYSA-N,CC1=CC=CC2=C1C=CC3=CC=CC=C23,-5.85,0.0,1,G1
C-2036,"1,4,6,7-tetrachloronaphthalene",InChI=1S/C10H4Cl4/c11-7-1-2-8(12)6-4-10(14)9(13)3-5(6)7/h1-4H,VJZRCIYSYVGDMU-UHFFFAOYSA-N,ClC1=CC=C(Cl)C2=C1C=C(Cl)C(=C2)Cl,-7.52,0.0,1,G1
C-2037,"6,7-diethyl-1h-pteridine-2,4-dione;  ""2,4-dihydroxy-6,7-diethylpteridine""","InChI=1S/C10H12N4O2/c1-3-5-6(4-2)12-8-7(11-5)9(15)14-10(16)13-8/h3-4H2,1-2H3,(H2,12,13,14,15,16)",PNLRJGYHLCFMLM-UHFFFAOYSA-N,CCC1=NC2=C(N=C1CC)C(=O)NC(=O)N2,-2.39,0.0,1,G1
C-2038,purin-6-ylmercaptomethyl butyrate; s-butanoyloxymethyl-6-mercaptopurine; butanoic acid 9h-purin-6-ylthiomethyl ester,"InChI=1S/C10H12N4O2S/c1-2-3-7(15)16-6-17-10-8-9(12-4-11-8)13-5-14-10/h4-5H,2-3,6H2,1H3,(H,11,12,13,14)",QEDDLDVOLQFFLS-UHFFFAOYSA-N,CCCC(=O)OCSC1=NC=NC2=C1N=C[NH]2,-2.69,0.0,1,G1
C-2039,coniferin dihydrate,"InChI=1S/C16H22O8/c1-22-11-7-9(3-2-6-17)4-5-10(11)23-16-15(21)14(20)13(19)12(8-18)24-16/h2-5,7,12-21H,6,8H2,1H3/b3-2+",SFLMUHDGSQZDOW-NSCUHMNNSA-N,COC1=C(OC2OC(CO)C(O)C(O)C2O)C=CC(=C1)\C=C\CO,-1.87,0.0,1,G1
C-2040,"2',3,5-trichlorobiphenyl",InChI=1S/C12H7Cl3/c13-9-5-8(6-10(14)7-9)11-3-1-2-4-12(11)15/h1-7H,GXVMAQACUOSFJF-UHFFFAOYSA-N,ClC1=CC(=CC(=C1)Cl)C2=C(Cl)C=CC=C2,-6.3,0.0,1,G1
C-2041,n-(3-aminophenyl)anthranilic  acid;  3'-aminofenamic acid,"InChI=1S/C13H12N2O2/c14-9-4-3-5-10(8-9)15-12-7-2-1-6-11(12)13(16)17/h1-8,15H,14H2,(H,16,17)",UIPDOEPZZQRQKQ-UHFFFAOYSA-N,NC1=CC=CC(=C1)NC2=CC=CC=C2C(O)=O,-4.09,0.0,1,G1
C-2042,pentachlorophenoxyacetic  acid,"InChI=1S/C8H3Cl5O3/c9-3-4(10)6(12)8(7(13)5(3)11)16-1-2(14)15/h1H2,(H,14,15)",OBEUDXCKNSDQIL-UHFFFAOYSA-N,OC(=O)COC1=C(Cl)C(=C(Cl)C(=C1Cl)Cl)Cl,-3.75,0.0,1,G1
C-2043,"1,3,5,8-tetrachloronaphthalene",InChI=1S/C10H4Cl4/c11-5-3-6-7(12)1-2-8(13)10(6)9(14)4-5/h1-4H,VFTLNRFRXWCJJK-UHFFFAOYSA-N,ClC1=CC2=C(C(=CC=C2Cl)Cl)C(=C1)Cl,-7.51,0.0,1,G1
C-2044,9-(2-hydroxy-3-nonyl)adenine,"InChI=1S/C14H23N5O/c1-3-4-5-6-7-11(10(2)20)19-9-18-12-13(15)16-8-17-14(12)19/h8-11,20H,3-7H2,1-2H3,(H2,15,16,17)",IOSAAWHGJUZBOG-UHFFFAOYSA-N,CCCCCCC(C(C)O)[N]1C=NC2=C1N=CN=C2N,-2.25,0.0,1,G1
C-2045,"myclozolin; 3-(3,5-dichlorophenyl)-5-methoxymethyl-5-methyl-oxazolidine-2,4-dione","InChI=1S/C12H11Cl2NO4/c1-12(6-18-2)10(16)15(11(17)19-12)9-4-7(13)3-8(14)5-9/h3-5H,6H2,1-2H3",FTCOKXNKPOUEFH-UHFFFAOYSA-N,COCC1(C)OC(=O)N(C1=O)C2=CC(=CC(=C2)Cl)Cl,-4.66,0.0,1,G1
C-2046,"rufinamide;  1-(2,6-difluorobenzyl)-1h-1,2,3-triazole-4-carboxamide","InChI=1S/C10H8F2N4O/c11-7-2-1-3-8(12)6(7)4-16-5-9(10(13)17)14-15-16/h1-3,5H,4H2,(H2,13,17)",POGQSBRIGCQNEG-UHFFFAOYSA-N,NC(=O)C1=C[N](CC2=C(F)C=CC=C2F)N=N1,-3.5,0.0,1,G1
C-2047,cyprofuram;  vinicur,"InChI=1S/C14H14ClNO3/c15-10-2-1-3-11(8-10)16(13(17)9-4-5-9)12-6-7-19-14(12)18/h1-3,8-9,12H,4-7H2",KRZUZYJEQBXUIN-UHFFFAOYSA-N,ClC1=CC=CC(=C1)N(C2CCOC2=O)C(=O)C3CC3,-2.69,0.0,1,G1
C-2048,n-(3-hydroxyphenyl)anthranilic  acid;  3'-hydroxyfenamic acid,"InChI=1S/C13H11NO3/c15-10-5-3-4-9(8-10)14-12-7-2-1-6-11(12)13(16)17/h1-8,14-15H,(H,16,17)",YQULREKUYCCSJA-UHFFFAOYSA-N,OC(=O)C1=CC=CC=C1NC2=CC(=CC=C2)O,-3.54,0.0,1,G1
C-2049,n-(2-benzoyloxyacetyl)proline methyl ester,"InChI=1S/C15H17NO5/c1-20-15(19)12-8-5-9-16(12)13(17)10-21-14(18)11-6-3-2-4-7-11/h2-4,6-7,12H,5,8-10H2,1H3",UQIKOYWGLUXMNE-UHFFFAOYSA-N,COC(=O)C1CCCN1C(=O)COC(=O)C2=CC=CC=C2,-2.08,0.0,1,G1
C-2050,"quinclorac; 3,7-dichloro-8-carboxyquinoline; 3,7-dichloro-8-quinolinecarboxylic acid","InChI=1S/C10H5Cl2NO2/c11-6-3-5-1-2-7(12)8(10(14)15)9(5)13-4-6/h1-4H,(H,14,15)",FFSSWMQPCJRCRV-UHFFFAOYSA-N,OC(=O)C1=C(Cl)C=CC2=C1N=CC(=C2)Cl,-3.57,0.0,1,G1
C-2051,"methoxyphenone;  3,3'-dimethyl-4-methoxybenzophenone","InChI=1S/C16H16O2/c1-11-5-4-6-13(9-11)16(17)14-7-8-15(18-3)12(2)10-14/h4-10H,1-3H3",BWPYBAJTDILQPY-UHFFFAOYSA-N,COC1=C(C)C=C(C=C1)C(=O)C2=CC(=CC=C2)C,-5.08,0.0,1,G1
C-2052,8-phenylpurine,"InChI=1S/C11H8N4/c1-2-4-8(5-3-1)10-14-9-6-12-7-13-11(9)15-10/h1-7H,(H,12,13,14,15)",ULWZFKSDBAAHEI-UHFFFAOYSA-N,[NH]1C2=C(N=CN=C2)N=C1C3=CC=CC=C3,-3.06,0.0,1,G1
C-2053,n-isonicotinoyl-n'-benzoylhydrazine;  n-benzoyl-n'-isonicotinoylhydrazine,"InChI=1S/C13H11N3O2/c17-12(10-4-2-1-3-5-10)15-16-13(18)11-6-8-14-9-7-11/h1-9H,(H,15,17)(H,16,18)",UHMAPOLDLKSAOI-UHFFFAOYSA-N,O=C(NNC(=O)C1=CC=NC=C1)C2=CC=CC=C2,-2.54,0.0,1,G1
C-2054,"styphnic  acid; 1,3-dihydroxy-2,4,6-trinitrobenzene","InChI=1S/C6H3N3O8/c10-5-2(7(12)13)1-3(8(14)15)6(11)4(5)9(16)17/h1,10-11H",IXHMHWIBCIYOAZ-UHFFFAOYSA-N,OC1=C(C(=C(C=C1[N+]([O-])=O)[N+]([O-])=O)O)[N+]([O-])=O,-3.51,0.9239999999999999,2,G2
C-2055,1-bromo-2-naphthyl  isothiocyanate;  1-bromo-2-isothiocyanatonaphthalene,InChI=1S/C11H6BrNS/c12-11-9-4-2-1-3-8(9)5-6-10(11)13-7-14/h1-6H,QCDAGXOLJWOIFN-UHFFFAOYSA-N,BrC1=C(C=CC2=CC=CC=C12)N=C=S,-4.32,0.0,1,G1
C-2056,"n1,n4-diacetylsulfanilamide;  n4-acetylsulfacetamide","InChI=1S/C10H12N2O4S/c1-7(13)11-9-3-5-10(6-4-9)17(15,16)12-8(2)14/h3-6H,1-2H3,(H,11,13)(H,12,14)",YTJJPFRVBNFIBN-UHFFFAOYSA-N,CC(=O)NC1=CC=C(C=C1)[S](=O)(=O)NC(C)=O,-2.78,0.0,1,G1
C-2058,fluenetil,"InChI=1S/C16H15FO2/c17-10-11-19-16(18)12-13-6-8-15(9-7-13)14-4-2-1-3-5-14/h1-9H,10-12H2",XAERLJMOUYEBAB-UHFFFAOYSA-N,FCCOC(=O)CC1=CC=C(C=C1)C2=CC=CC=C2,-5.01,0.0,1,G1
C-2059,isoxsuprine,"InChI=1S/C18H23NO3/c1-13(12-22-17-6-4-3-5-7-17)19-14(2)18(21)15-8-10-16(20)11-9-15/h3-11,13-14,18-21H,12H2,1-2H3",BMUKKTUHUDJSNZ-UHFFFAOYSA-N,CC(COC1=CC=CC=C1)NC(C)C(O)C2=CC=C(O)C=C2,-1.53,0.0,1,G1
C-2060,"n,n-(dicyclohexyl)acetamido  benzoate;  analog 29","InChI=1S/C21H29NO3/c23-20(16-25-21(24)17-10-4-1-5-11-17)22(18-12-6-2-7-13-18)19-14-8-3-9-15-19/h1,4-5,10-11,18-19H,2-3,6-9,12-16H2",XDEYTBJLAPSTGO-UHFFFAOYSA-N,O=C(COC(=O)C1=CC=CC=C1)N(C2CCCCC2)C3CCCCC3,-5.06,0.0,1,G1
C-2061,7-acetyltheophylline,"InChI=1S/C9H10N4O3/c1-5(14)13-4-10-7-6(13)8(15)12(3)9(16)11(7)2/h4H,1-3H3",RCDRLZYAKDYXMM-UHFFFAOYSA-N,CN1C(=O)N(C)C2=C([N](C=N2)C(C)=O)C1=O,-1.4,0.0,1,G1
C-2062,"1,5-diphenylthiocarbazone;  dithizone","InChI=1S/C13H12N4S/c18-13(16-14-11-7-3-1-4-8-11)17-15-12-9-5-2-6-10-12/h1-10,14H,(H,16,18)",UOFGSWVZMUXXIY-UHFFFAOYSA-N,S=C(NNC1=CC=CC=C1)N=NC2=CC=CC=C2,-6.61,0.0,1,G1
C-2064,s-valeroyloxymethyl-6-mercaptopurine;  s-pentanoyloxymethyl-6-mercaptopurine,"InChI=1S/C11H14N4O2S/c1-2-3-4-8(16)17-7-18-11-9-10(13-5-12-9)14-6-15-11/h5-6H,2-4,7H2,1H3,(H,12,13,14,15)",SFTFTJMAUOPCTA-UHFFFAOYSA-N,CCCCC(=O)OCSC1=NC=NC2=C1N=C[NH]2,-3.1,0.0,1,G1
C-2065,imazethapyr,"InChI=1S/C15H19N3O3/c1-5-9-6-10(13(19)20)11(16-7-9)12-17-14(21)15(4,18-12)8(2)3/h6-8H,5H2,1-4H3,(H,19,20)(H,17,18,21)",XVOKUMIPKHGGTN-UHFFFAOYSA-N,CCC1=CN=C(C2=NC(C)(C(C)C)C(=O)N2)C(=C1)C(O)=O,-2.32,0.0,1,G1
C-2066,"4,5-methylenephenanthrene; 4h-cyclopenta[def]phenanthrene","InChI=1S/C15H10/c1-3-10-7-8-11-4-2-6-13-9-12(5-1)14(10)15(11)13/h1-8H,9H2",RKZDZWJDQTZDLD-UHFFFAOYSA-N,C1C2=CC=CC3=CC=C4C=CC=C1C4=C23,-5.24,0.0,1,G1
C-2067,3-benzoylphenyl  isothiocyanate; 3-isothiocyanatobenzophenone,InChI=1S/C14H9NOS/c16-14(11-5-2-1-3-6-11)12-7-4-8-13(9-12)15-10-17/h1-9H,OKLVWLLVWTVJRP-UHFFFAOYSA-N,O=C(C1=CC=CC=C1)C2=CC=CC(=C2)N=C=S,-5.4,0.0,1,G1
C-2068,diethatyl-ethyl,"InChI=1S/C16H22ClNO3/c1-4-12-8-7-9-13(5-2)16(12)18(14(19)10-17)11-15(20)21-6-3/h7-9H,4-6,10-11H2,1-3H3",WFKSADNZWSKCRZ-UHFFFAOYSA-N,CCOC(=O)CN(C(=O)CCl)C1=C(CC)C=CC=C1CC,-3.47,0.0,1,G1
C-2069,n-(3-chlorophenyl)anthranilic  acid;  3'-chlorofenamic acid,"InChI=1S/C13H10ClNO2/c14-9-4-3-5-10(8-9)15-12-7-2-1-6-11(12)13(16)17/h1-8,15H,(H,16,17)",OVMWPVYEBVFZHM-UHFFFAOYSA-N,OC(=O)C1=CC=CC=C1NC2=CC(=CC=C2)Cl,-5.3,0.0,1,G1
C-2070,tianafac,"InChI=1S/C11H9ClO2S/c1-6-8-3-2-7(12)4-10(8)15-9(6)5-11(13)14/h2-4H,5H2,1H3,(H,13,14)",GGXDSIUMQOZKNP-UHFFFAOYSA-N,CC1=C(CC(O)=O)SC2=C1C=CC(=C2)Cl,-3.84,0.0,1,G1
C-2071,2-amino-6-naphthalenesulfonic  acid;  6-amino-2-naphthalenesulfonic acid,"InChI=1S/C10H9NO3S/c11-9-3-1-8-6-10(15(12,13)14)4-2-7(8)5-9/h1-6H,11H2,(H,12,13,14)",SEMRCUIXRUXGJX-UHFFFAOYSA-N,NC1=CC2=C(C=C1)C=C(C=C2)[S](O)(=O)=O,-3.27,0.0,1,G1
C-2072,"2,4,6-trihydroxybenzophenone","InChI=1S/C13H10O4/c14-9-6-10(15)12(11(16)7-9)13(17)8-4-2-1-3-5-8/h1-7,14-16H",CPEXFJVZFNYXGU-UHFFFAOYSA-N,OC1=CC(=C(C(=C1)O)C(=O)C2=CC=CC=C2)O,-1.87,0.0,1,G1
C-2073,n-isonicotinoyl-n'-(phenylacetyl)hydrazine,"InChI=1S/C14H13N3O2/c18-13(10-11-4-2-1-3-5-11)16-17-14(19)12-6-8-15-9-7-12/h1-9H,10H2,(H,16,18)(H,17,19)",FCRSOBDFPFGDHL-UHFFFAOYSA-N,O=C(CC1=CC=CC=C1)NNC(=O)C2=CC=NC=C2,-2.47,0.0,1,G1
C-2074,2-amino-7-naphthalenesulfonic  acid,"InChI=1S/C10H9NO3S/c11-9-3-1-7-2-4-10(15(12,13)14)6-8(7)5-9/h1-6H,11H2,(H,12,13,14)",OKAUOXITMZTUOJ-UHFFFAOYSA-N,NC1=CC2=C(C=C1)C=CC(=C2)[S](O)(=O)=O,-3.05,0.0,1,G1
C-2075,"2,4-dimethylthiazole-5-carboxanilide","InChI=1S/C12H12N2OS/c1-8-11(16-9(2)13-8)12(15)14-10-6-4-3-5-7-10/h3-7H,1-2H3,(H,14,15)",UDSJPFPDKCMYBD-UHFFFAOYSA-N,CC1=NC(=C(S1)C(=O)NC2=CC=CC=C2)C,-1.73,0.0,1,G1
C-2076,"2,4',6-trichlorodiphenyl  ether",InChI=1S/C12H7Cl3O/c13-8-4-6-9(7-5-8)16-12-10(14)2-1-3-11(12)15/h1-7H,ZMRFCSWFCKICQE-UHFFFAOYSA-N,ClC1=CC=C(OC2=C(Cl)C=CC=C2Cl)C=C1,-5.91,0.0,1,G1
C-2077,6-(hexanoyloxymethylthio)purine,"InChI=1S/C12H16N4O2S/c1-2-3-4-5-9(17)18-8-19-12-10-11(14-6-13-10)15-7-16-12/h6-7H,2-5,8H2,1H3,(H,13,14,15,16)",AKLIYCJZHPSMMA-UHFFFAOYSA-N,CCCCCC(=O)OCSC1=NC=NC2=C1N=C[NH]2,-3.63,0.0,1,G1
C-2078,1-amino-6-naphthalenesulfonic  acid;  5-amino-2-naphthalenesulfonic acid,"InChI=1S/C10H9NO3S/c11-10-3-1-2-7-6-8(15(12,13)14)4-5-9(7)10/h1-6H,11H2,(H,12,13,14)",UWPJYQYRSWYIGZ-UHFFFAOYSA-N,NC1=CC=CC2=C1C=CC(=C2)[S](O)(=O)=O,-2.24,0.0,1,G1
C-2080,n-(3-anisyl)anthranilic  acid;   2-(3-methoxyphenylamino)benzoic acid,"InChI=1S/C14H13NO3/c1-18-11-6-4-5-10(9-11)15-13-8-3-2-7-12(13)14(16)17/h2-9,15H,1H3,(H,16,17)",SSRGDXQQJKAWKX-UHFFFAOYSA-N,COC1=CC=CC(=C1)NC2=CC=CC=C2C(O)=O,-4.8,0.0,1,G1
C-2081,"2,4,6-trichlorodiphenyl  ether",InChI=1S/C12H7Cl3O/c13-8-6-10(14)12(11(15)7-8)16-9-4-2-1-3-5-9/h1-7H,WXLQUFLKMICSSY-UHFFFAOYSA-N,ClC1=CC(=C(OC2=CC=CC=C2)C(=C1)Cl)Cl,-6.11,0.0,1,G1
C-2082,thebaine,"InChI=1S/C19H21NO3/c1-20-9-8-19-12-5-7-15(22-3)18(19)23-17-14(21-2)6-4-11(16(17)19)10-13(12)20/h4-7,13,18H,8-10H2,1-3H3",FQXXSQDCDRQNQE-UHFFFAOYSA-N,COC1=CC=C2C3CC4=C5C(=C(OC)C=C4)OC1C25CCN3C,-2.66,0.0,1,G1
C-2083,1-amino-3-naphthalenesulfonic  acid,"InChI=1S/C10H9NO3S/c11-10-6-8(15(12,13)14)5-7-3-1-2-4-9(7)10/h1-6H,11H2,(H,12,13,14)",HXXMONHYPKNZHE-UHFFFAOYSA-N,NC1=CC(=CC2=C1C=CC=C2)[S](O)(=O)=O,-2.34,0.0,1,G1
C-2084,n-phenylphthalamic acid,"InChI=1S/C14H11NO3/c16-13(15-10-6-2-1-3-7-10)11-8-4-5-9-12(11)14(17)18/h1-9H,(H,15,16)(H,17,18)",DSUPUOGOCIFZBG-UHFFFAOYSA-N,OC(=O)C1=C(C=CC=C1)C(=O)NC2=CC=CC=C2,-4.08,0.0,1,G1
C-2086,"2,3,6-trichlorodiphenyl  ether",InChI=1S/C12H7Cl3O/c13-9-6-7-10(14)12(11(9)15)16-8-4-2-1-3-5-8/h1-7H,RQSRPDGSUDRYLH-UHFFFAOYSA-N,ClC1=CC=C(Cl)C(=C1Cl)OC2=CC=CC=C2,-5.95,0.0,1,G1
C-2088,n-isonicotinoyl-n'-(2-methylbenzoyl)hydrazine,"InChI=1S/C14H13N3O2/c1-10-4-2-3-5-12(10)14(19)17-16-13(18)11-6-8-15-9-7-11/h2-9H,1H3,(H,16,18)(H,17,19)",FHPBWQWLOSHMLI-UHFFFAOYSA-N,CC1=C(C=CC=C1)C(=O)NNC(=O)C2=CC=NC=C2,-2.73,0.0,1,G1
C-2089,"2-ethyl-1-methyl-1,2,3,4-tetrahydro-2,4a,9-triazaanthracen-10-one; ethyl-methylpyridoquinazolone","InChI=1S/C14H17N3O/c1-3-16-8-9-17-13(10(16)2)15-12-7-5-4-6-11(12)14(17)18/h4-7,10H,3,8-9H2,1-2H3",QBNMZYNBZAKUSP-UHFFFAOYSA-N,CCN1CCN2C(=O)C3=C(C=CC=C3)N=C2C1C,-2.5,0.0,1,G1
C-2090,dinoseb  acetate,"InChI=1S/C12H14N2O6/c1-4-7(2)10-5-9(13(16)17)6-11(14(18)19)12(10)20-8(3)15/h5-7H,4H2,1-3H3",RDJTWDKSYLLHRW-UHFFFAOYSA-N,CCC(C)C1=C(OC(C)=O)C(=CC(=C1)[N+]([O-])=O)[N+]([O-])=O,-2.25,0.07089999999999996,2,G3
C-2091,7-propanoyltheophylline,"InChI=1S/C10H12N4O3/c1-4-6(15)14-5-11-8-7(14)9(16)13(3)10(17)12(8)2/h5H,4H2,1-3H3",ZPUJWKXAFJEHDZ-UHFFFAOYSA-N,CCC(=O)[N]1C=NC2=C1C(=O)N(C)C(=O)N2C,-1.1,0.0,1,G1
C-2093,"fenitropan;  volparox;  1,3-diacetoxy-2-nitro-1-phenylpropane (1rs,2rs)","InChI=1S/C13H15NO6/c1-9(15)19-8-12(14(17)18)13(20-10(2)16)11-6-4-3-5-7-11/h3-7,12-13H,8H2,1-2H3",AYBALPYBYZFKDS-UHFFFAOYSA-N,CC(=O)OCC(C(OC(C)=O)C1=CC=CC=C1)[N+]([O-])=O,-3.97,0.0,1,G1
C-2094,2-amino-5-naphthalenesulfonic  acid;  6-amino-1-naphthalenesulfonic acid,"InChI=1S/C10H9NO3S/c11-8-4-5-9-7(6-8)2-1-3-10(9)15(12,13)14/h1-6H,11H2,(H,12,13,14)",YUNBHHWDQDGWHC-UHFFFAOYSA-N,NC1=CC2=C(C=C1)C(=CC=C2)[S](O)(=O)=O,-2.75,0.0,1,G1
C-2095,"2,4,6-trinitrobenzoic acid","InChI=1S/C7H3N3O8/c11-7(12)6-4(9(15)16)1-3(8(13)14)2-5(6)10(17)18/h1-2H,(H,11,12)",KAQBNBSMMVTKRN-UHFFFAOYSA-N,OC(=O)C1=C(C=C(C=C1[N+]([O-])=O)[N+]([O-])=O)[N+]([O-])=O,-1.1,0.0,1,G1
C-2096,2-amino-8-naphthalenesulfonic acid;  7-amino-1-naphthalenesulfonic acid,"InChI=1S/C10H9NO3S/c11-8-5-4-7-2-1-3-10(9(7)6-8)15(12,13)14/h1-6H,11H2,(H,12,13,14)",FYVOTMMSGKWFPK-UHFFFAOYSA-N,NC1=CC2=C(C=CC=C2[S](O)(=O)=O)C=C1,-2.57,0.0,1,G1
C-2097,dihydroequilenin,"InChI=1S/C18H20O2/c1-18-9-8-14-13-5-3-12(19)10-11(13)2-4-15(14)16(18)6-7-17(18)20/h2-5,10,16-17,19-20H,6-9H2,1H3",RYWZPRVUQHMJFF-UHFFFAOYSA-N,CC12CCC3=C(C=CC4=C3C=CC(=C4)O)C1CCC2O,-4.64,0.0,1,G1
C-2099,cyproconazole,"InChI=1S/C15H18ClN3O/c1-11(12-2-3-12)15(20,8-19-10-17-9-18-19)13-4-6-14(16)7-5-13/h4-7,9-12,20H,2-3,8H2,1H3",UFNOUKDBUJZYDE-UHFFFAOYSA-N,CC(C1CC1)C(O)(C[N]2C=NC=N2)C3=CC=C(Cl)C=C3,-3.32,0.0,1,G1
C-2100,zileuton,"InChI=1S/C11H12N2O2S/c1-7(13(15)11(12)14)10-6-8-4-2-3-5-9(8)16-10/h2-7,15H,1H3,(H2,12,14)",MWLSOWXNZPKENC-UHFFFAOYSA-N,CC(N(O)C(N)=O)C1=CC2=C(S1)C=CC=C2,-3.37,0.0,1,G1
C-2101,1-amino-5-naphthalenesulfonic  acid,"InChI=1S/C10H9NO3S/c11-9-5-1-4-8-7(9)3-2-6-10(8)15(12,13)14/h1-6H,11H2,(H,12,13,14)",DQNAQOYOSRJXFZ-UHFFFAOYSA-N,NC1=CC=CC2=C1C=CC=C2[S](O)(=O)=O,-2.35,0.0,1,G1
C-2103,1-amino-4-naphthalenesulfonic  acid;  4-amino-1-naphthalenesulfonic acid,"InChI=1S/C10H9NO3S/c11-9-5-6-10(15(12,13)14)8-4-2-1-3-7(8)9/h1-6H,11H2,(H,12,13,14)",NRZRRZAVMCAKEP-UHFFFAOYSA-N,NC1=CC=C(C2=C1C=CC=C2)[S](O)(=O)=O,-2.91,0.0,1,G1
C-2104,"9-[2-(indol-3-yl)ethyl]-1-oxa-3-oxo-4,9-diazaspiro[5,5]undecane","InChI=1S/C18H23N3O2/c22-17-12-23-18(13-20-17)6-9-21(10-7-18)8-5-14-11-19-16-4-2-1-3-15(14)16/h1-4,11,19H,5-10,12-13H2,(H,20,22)",SPALXTYNFFFDEM-UHFFFAOYSA-N,O=C1COC2(CCN(CCC3=C[NH]C4=C3C=CC=C4)CC2)CN1,-2.99,0.0,1,G1
C-2105,"3-(1-aziridinyl)-4,6-dinitro-(n-ethyl)benzamide","InChI=1S/C11H12N4O5/c1-2-12-11(16)7-5-9(13-3-4-13)10(15(19)20)6-8(7)14(17)18/h5-6H,2-4H2,1H3,(H,12,16)",YQQRZTDOPIBVHX-UHFFFAOYSA-N,CCNC(=O)C1=CC(=C(C=C1[N+]([O-])=O)[N+]([O-])=O)N2CC2,-3.13,0.0,1,G1
C-2106,timobesone  acetate,"InChI=1S/C24H31FO5S/c1-13-10-18-17-7-6-15-11-16(27)8-9-21(15,3)23(17,25)19(28)12-22(18,4)24(13,20(29)31-5)30-14(2)26/h8-9,11,13,17-19,28H,6-7,10,12H2,1-5H3",NWJQIUPQBDVVLW-UHFFFAOYSA-N,CSC(=O)C1(OC(C)=O)C(C)CC2C3CCC4=CC(=O)C=CC4(C)C3(F)C(O)CC12C,-6.22,0.0,1,G1
C-2107,4-benzoylaminophenyl  acetate;  acetic acid 4-benzoylaminophenyl ester,"InChI=1S/C15H13NO3/c1-11(17)19-14-9-7-13(8-10-14)16-15(18)12-5-3-2-4-6-12/h2-10H,1H3,(H,16,18)",MBMANTPXLYUUGC-UHFFFAOYSA-N,CC(=O)OC1=CC=C(NC(=O)C2=CC=CC=C2)C=C1,-4.14,0.0,1,G1
C-2108,"1,2,4-trimethyl-1,2,3,4-tetrahydro-2,4a,9-triazaanthracen-10-one; trimethylpyridoquinazolone","InChI=1S/C14H17N3O/c1-9-8-16(3)10(2)13-15-12-7-5-4-6-11(12)14(18)17(9)13/h4-7,9-10H,8H2,1-3H3",XURLBPGUZQJXEK-UHFFFAOYSA-N,CC1CN(C)C(C)C2=NC3=C(C=CC=C3)C(=O)N12,-2.09,0.0,1,G1
C-2109,1-amino-8-naphthalenesulfonic  acid,"InChI=1S/C10H9NO3S/c11-8-5-1-3-7-4-2-6-9(10(7)8)15(12,13)14/h1-6H,11H2,(H,12,13,14)",CYJJLCDCWVZEDZ-UHFFFAOYSA-N,NC1=CC=CC2=C1C(=CC=C2)[S](O)(=O)=O,-3.07,0.0,1,G1
C-2111,"proxicromil analog iii;  cyclohexano(6,7)chromone-2-carboxylic acid","InChI=1S/C14H12O4/c15-11-7-13(14(16)17)18-12-6-9-4-2-1-3-8(9)5-10(11)12/h5-7H,1-4H2,(H,16,17)",AGIKBILZJVNZNW-UHFFFAOYSA-N,OC(=O)C1=CC(=O)C2=C(O1)C=C3CCCCC3=C2,-1.05,0.0,1,G1
C-2112,3-benzoyloxyphenyl  isothiocyanate;  benzoic acid 3-isothiocyanatophenyl ester,InChI=1S/C14H9NO2S/c16-14(11-5-2-1-3-6-11)17-13-8-4-7-12(9-13)15-10-18/h1-9H,YPRUUTYWPBBBGA-UHFFFAOYSA-N,O=C(OC1=CC=CC(=C1)N=C=S)C2=CC=CC=C2,-4.85,0.0,1,G1
C-2114,7-methoxycarbonyltheophylline,"InChI=1S/C9H10N4O4/c1-11-6-5(7(14)12(2)8(11)15)13(4-10-6)9(16)17-3/h4H,1-3H3",JDORMWPGTNFOBC-UHFFFAOYSA-N,COC(=O)[N]1C=NC2=C1C(=O)N(C)C(=O)N2C,-1.24,0.0,1,G1
C-2115,ibuprofen ester iic; n-methyl-n-[2-(2'-(4''-isobutylphenyl)propanoyloxy)acetyl]glycineamide,"InChI=1S/C18H26N2O4/c1-12(2)9-14-5-7-15(8-6-14)13(3)18(23)24-11-17(22)20(4)10-16(19)21/h5-8,12-13H,9-11H2,1-4H3,(H2,19,21)",KHKOSGDSOXGMOO-UHFFFAOYSA-N,CC(C)CC1=CC=C(C=C1)C(C)C(=O)OCC(=O)N(C)CC(N)=O,-3.41,0.0,1,G1
C-2116,basitac;  isopropoxytoluanilide,"InChI=1S/C17H19NO2/c1-12(2)20-15-9-6-8-14(11-15)18-17(19)16-10-5-4-7-13(16)3/h4-12H,1-3H3,(H,18,19)",BCTQJXQXJVLSIG-UHFFFAOYSA-N,CC(C)OC1=CC=CC(=C1)NC(=O)C2=C(C)C=CC=C2,-4.33,0.0,1,G1
C-2117,7-theophyllinylmethyl  acetate;  7-(acetoxymethyl)theophylline,"InChI=1S/C10H12N4O4/c1-6(15)18-5-14-4-11-8-7(14)9(16)13(3)10(17)12(8)2/h4H,5H2,1-3H3",BKXGMMLAXFAIGQ-UHFFFAOYSA-N,CN1C(=O)N(C)C2=C([N](COC(C)=O)C=N2)C1=O,-1.83,0.0,1,G1
C-2118,tropicamide,"InChI=1S/C17H20N2O2/c1-2-19(12-14-8-10-18-11-9-14)17(21)16(13-20)15-6-4-3-5-7-15/h3-11,16,20H,2,12-13H2,1H3",BGDKAVGWHJFAGW-UHFFFAOYSA-N,CCN(CC1=CC=NC=C1)C(=O)C(CO)C2=CC=CC=C2,-1.7,0.0,1,G1
C-2119,3-isothiocyanatophenyl  nicotinate,InChI=1S/C13H8N2O2S/c16-13(10-3-2-6-14-8-10)17-12-5-1-4-11(7-12)15-9-18/h1-8H,OUAPWRYEWXOCRN-UHFFFAOYSA-N,O=C(OC1=CC=CC(=C1)N=C=S)C2=CC=CN=C2,-4.3,0.0,1,G1
C-2120,"ethidimuron;  1-(5-ethylsulfonyl-1,3,4-thiadiazol-2-yl)-1,3-dimethylurea","InChI=1S/C7H12N4O3S2/c1-4-16(13,14)7-10-9-6(15-7)11(3)5(12)8-2/h4H2,1-3H3,(H,8,12)",KCOCSOWTADCKOL-UHFFFAOYSA-N,CC[S](=O)(=O)C1=NN=C(S1)N(C)C(=O)NC,-1.95,0.0,1,G1
C-2121,"4,4'-bis(dimethylamino)benzophenone;  michler's ketone","InChI=1S/C17H20N2O/c1-18(2)15-9-5-13(6-10-15)17(20)14-7-11-16(12-8-14)19(3)4/h5-12H,1-4H3",VVBLNCFGVYUYGU-UHFFFAOYSA-N,CN(C)C1=CC=C(C=C1)C(=O)C2=CC=C(C=C2)N(C)C,-2.83,0.0,1,G1
C-2123,6-(s-octanoyloxymethyl)mercaptopurine;  6-(octanoyloxymethylthio)purine,"InChI=1S/C14H20N4O2S/c1-2-3-4-5-6-7-11(19)20-10-21-14-12-13(16-8-15-12)17-9-18-14/h8-9H,2-7,10H2,1H3,(H,15,16,17,18)",RLAQXWWETVAEAC-UHFFFAOYSA-N,CCCCCCCC(=O)OCSC1=NC=NC2=C1N=C[NH]2,-4.62,0.0,1,G1