ID,Name,InChI,InChIKey,SMILES,Solubility,SD,Occurrences,Group
B-695,bis (2-hydroxy-3tert-butyl-5-methylphenyl) metha,"InChI=1S/C23H32O2/c1-14-9-16(20(24)18(11-14)22(3,4)5)13-17-10-15(2)12-19(21(17)25)23(6,7)8/h9-12,24-25H,13H2,1-8H3",KGRVJHAUYBGFFP-UHFFFAOYSA-N,Cc1cc(Cc2cc(C)cc(c2O)C(C)(C)C)c(O)c(c1)C(C)(C)C,-7.2311,0.9105244830093233,3,G4
B-708,"2,2'-dithiobisbenzothiazole",InChI=1S/C14H8N2S4/c1-3-7-11-9(5-1)15-13(17-11)19-20-14-16-10-6-2-4-8-12(10)18-14/h1-8H,AFZSMODLJJCVPP-UHFFFAOYSA-N,S(Sc1sc2ccccc2n1)c3sc4ccccc4n3,-4.5218,1.2798582353913686,4,G4
B-719,2-anilinoethanol,"InChI=1S/C8H11NO/c10-7-6-9-8-4-2-1-3-5-8/h1-5,9-10H,6-7H2",MWGATWIBSKHFMR-UHFFFAOYSA-N,OCCNc1ccccc1,-0.4745,0.01721610625,2,G3
B-722,2-methylpentaldehyde,"InChI=1S/C6H12O/c1-3-4-6(2)5-7/h5-6H,3-4H2,1-2H3",FTZILAQGHINQQR-UHFFFAOYSA-N,CCCC(C)C=O,-1.3774,0.007386309150000048,2,G3
B-726,"3-methylene-7-methyl-1,6-octadiene  (myrcene)","InChI=1S/C10H16/c1-5-10(4)8-6-7-9(2)3/h5,7H,1,4,6,8H2,2-3H3",UAHWPYUMFXYFJY-UHFFFAOYSA-N,CC(C)=CCCC(=C)C=C,-4.3861,0.022023871300000053,2,G3
B-740,n-dodecylamine,"InChI=1S/C12H27N/c1-2-3-4-5-6-7-8-9-10-11-12-13/h2-13H2,1H3",JRBPAEWTRLWTQC-UHFFFAOYSA-N,CCCCCCCCCCCCN,-3.3759,0.816809959259971,6,G4
B-751,dipentaerythritol,"InChI=1S/C10H22O7/c11-1-9(2-12,3-13)7-17-8-10(4-14,5-15)6-16/h11-16H,1-8H2",TXBCBTDQIULDIA-UHFFFAOYSA-N,OCC(CO)(CO)COCC(CO)(CO)CO,-1.9582,0.033449626550000056,2,G3
B-758,alpha-ionone,"InChI=1S/C13H20O/c1-10-6-5-9-13(3,4)12(10)8-7-11(2)14/h6-8,12H,5,9H2,1-4H3/b8-7+",UZFLPKAIBPNNCA-BQYQJAHWSA-N,CC(=O)/C=C/C1C(=CCCC1(C)C)C,-3.2587,0.2883880951500002,2,G3
B-798,nitrilotriacetic acid,"InChI=1S/C6H9NO6/c8-4(9)1-7(2-5(10)11)3-6(12)13/h1-3H2,(H,8,9)(H,10,11)(H,12,13)",MGFYIUFZLHCRTH-UHFFFAOYSA-N,OC(=O)CN(CC(O)=O)CC(O)=O,-0.5101,0.8286529786000001,2,G2
B-804,"1,2-ethanediamine, n,n'-bis(phenylmethyl)-","InChI=1S/C16H20N2/c1-3-7-15(8-4-1)13-17-11-12-18-14-16-9-5-2-6-10-16/h1-10,17-18H,11-14H2",JUHORIMYRDESRB-UHFFFAOYSA-N,C(CNCc1ccccc1)NCc2ccccc2,-1.7865,0.28825,2,G3
B-811,diethyl maleate,"InChI=1S/C8H12O4/c1-3-11-7(9)5-6-8(10)12-4-2/h5-6H,3-4H2,1-2H3/b6-5-",IEPRKVQEAMIZSS-WAYWQWQTSA-N,CCOC(=O)\C=C/C(=O)OCC,-1.0899,0.01120739000000004,2,G3
B-841,dl-allothreonine,"InChI=1S/C4H9NO3/c1-2(6)3(5)4(7)8/h2-3,6H,5H2,1H3,(H,7,8)",AYFVYJQAPQTCCC-UHFFFAOYSA-N,CC(O)C(N)C(O)=O,0.067,0.14467437832393729,4,G5
B-851,sodium succinate,"InChI=1S/C4H6O4.2Na/c5-3(6)1-2-4(7)8;;/h1-2H2,(H,5,6)(H,7,8);;/q;2*+1/p-2",ZDQYSKICYIVCPN-UHFFFAOYSA-L,[Na+].[Na+].[O-]C(=O)CCC([O-])=O,0.0914,0.25257645802454576,4,G5
B-857,p-hydroxyphenylacetic acid,"InChI=1S/C8H8O3/c9-7-3-1-6(2-4-7)5-8(10)11/h1-4,9H,5H2,(H,10,11)",XQXPVVBIMDBYFF-UHFFFAOYSA-N,OC(=O)Cc1ccc(O)cc1,-0.3991,0.39548247170200346,3,G5
B-900,potassium sodium tartrate,"InChI=1S/C4H6O6.K.Na/c5-1(3(7)8)2(6)4(9)10;;/h1-2,5-6H,(H,7,8)(H,9,10);;/q;2*+1/p-2/t1-,2-;;/m1../s1",LJCNRYVRMXRIQR-OLXYHTOASA-L,[Na+].[K+].O[C@H]([C@@H](O)C([O-])=O)C([O-])=O,0.3984,0.7108473757810697,9,G4
B-916,leucine,"InChI=1S/C6H13NO2/c1-4(2)3-5(7)6(8)9/h4-5H,3,7H2,1-2H3,(H,8,9)",ROHFNLRQFUQHCH-UHFFFAOYSA-N,CC(C)CC(N)C(O)=O,-1.0456,0.1616350672074675,4,G5
B-1061,dl-valine,"InChI=1S/C5H11NO2/c1-3(2)4(6)5(7)8/h3-4H,6H2,1-2H3,(H,7,8)",KZSNJWFQEVHDMF-UHFFFAOYSA-N,CC(C)C(N)C(O)=O,-0.1971,0.07304336230110778,3,G5
B-1176,dl-tyrosine,"InChI=1S/C9H11NO3/c10-8(9(12)13)5-6-1-3-7(11)4-2-6/h1-4,8,11H,5,10H2,(H,12,13)",OUYCCCASQSFEME-UHFFFAOYSA-N,NC(Cc1ccc(O)cc1)C(O)=O,-2.6561,0.20848075900427843,4,G5
B-1233,potassium oxalate,"InChI=1S/C2H2O4.2K/c3-1(4)2(5)6;;/h(H,3,4)(H,5,6);;/q;2*+1/p-2",IRXRGVFLQOSHOH-UHFFFAOYSA-L,[K+].[K+].[O-]C(=O)C([O-])=O,0.1773,0.09765923295000001,2,G3
B-1262,potassium formate,"InChI=1S/CH2O2.K/c2-1-3;/h1H,(H,2,3);/q;+1/p-1",WFIZEGIEIOHZCP-UHFFFAOYSA-M,[K+].[O-]C=O,0.9288,0.07316327534999995,2,G3
B-1316,"benzoic acid, 2-benzoyl-, methyl ester","InChI=1S/C15H12O3/c1-18-15(17)13-10-6-5-9-12(13)14(16)11-7-3-2-4-8-11/h2-10H,1H3",NQSMEZJWJJVYOI-UHFFFAOYSA-N,COC(=O)c1ccccc1C(=O)c2ccccc2,-3.4776,0.15131334664807713,3,G5
B-1413,"hexanedioic acid, dimethyl ester","InChI=1S/C8H14O4/c1-11-7(9)5-3-4-6-8(10)12-2/h3-6H2,1-2H3",UDSFAEKRVUSQDD-UHFFFAOYSA-N,COC(=O)CCCCC(=O)OC,-1.4629,0.3795041006701314,4,G5
B-1444,ethyl t-butyl ether,"InChI=1S/C6H14O/c1-5-7-6(2,3)4/h5H2,1-4H3",NUMQCACRALPSHD-UHFFFAOYSA-N,CCOC(C)(C)C,-0.9302,0.3522024006499999,2,G3
B-1488,"2,4,6-tri(tert-butyl)phenol","InChI=1S/C18H30O/c1-16(2,3)12-10-13(17(4,5)6)15(19)14(11-12)18(7,8)9/h10-11,19H,1-9H3",PFEFOYRSMXVNEL-UHFFFAOYSA-N,CC(C)(C)c1cc(c(O)c(c1)C(C)(C)C)C(C)(C)C,-3.875,1.3723422575500002,2,G2
B-1490,dimethyltin dichloride,InChI=1S/2CH3.2ClH.Sn/h2*1H3;2*1H;/q;;;;+2/p-2,PKKGKUDPKRTKLJ-UHFFFAOYSA-L,C[Sn](C)(Cl)Cl,-1.0407,0.8071477385,2,G2
B-1531,potassium citrate,"InChI=1S/C6H8O7.3K/c7-3(8)1-6(13,5(11)12)2-4(9)10;;;/h13H,1-2H2,(H,7,8)(H,9,10)(H,11,12);;;/q;3*+1/p-3",QEEAPRPFLLJWCF-UHFFFAOYSA-K,[K+].[K+].[K+].OC(CC([O-])=O)(CC([O-])=O)C([O-])=O,0.2962,0.20252094095,2,G3
B-1538,potassium biphthalate,"InChI=1S/C8H6O4.K/c9-7(10)5-3-1-2-4-6(5)8(11)12;/h1-4H,(H,9,10)(H,11,12);/q;+1/p-1",IWZKICVEHNUQTL-UHFFFAOYSA-M,[K+].OC(=O)c1ccccc1C([O-])=O,-0.3895,0.5396987375,2,G2
B-1608,"pentanedioic acid, dimethyl ester","InChI=1S/C7H12O4/c1-10-6(8)4-3-5-7(9)11-2/h3-5H2,1-2H3",XTDYIOOONNVFMA-UHFFFAOYSA-N,COC(=O)CCCC(=O)OC,-0.4337,0.014575447549999981,2,G3
B-1621,p-cyclohexylphenol,"InChI=1S/C12H16O/c13-12-8-6-11(7-9-12)10-4-2-1-3-5-10/h6-10,13H,1-5H2",OAHMVZYHIJQTQC-UHFFFAOYSA-N,Oc1ccc(cc1)C2CCCCC2,-3.468,0.3039447931999999,2,G3
B-1642,galaxolide,"InChI=1S/C18H26O/c1-11-9-19-10-13-7-15-16(8-14(11)13)18(5,6)12(2)17(15,3)4/h7-8,11-12H,9-10H2,1-6H3",ONKNPOPIGWHAQC-UHFFFAOYSA-N,CC1COCc2cc3c(cc12)C(C)(C)C(C)C3(C)C,-5.1693,0.05386407509409698,5,G5
B-1644,2-ethylhexyl diphenyl phosphate,"InChI=1S/C20H27O4P/c1-3-5-12-18(4-2)17-22-25(21,23-19-13-8-6-9-14-19)24-20-15-10-7-11-16-20/h6-11,13-16,18H,3-5,12,17H2,1-2H3",CGSLYBDCEGBZCG-UHFFFAOYSA-N,CCCCC(CC)CO[P](=O)(Oc1ccccc1)Oc2ccccc2,-5.2804,0.7873224311999998,2,G2
B-1691,malaoxon,"InChI=1S/C10H19O7PS/c1-5-16-9(11)7-8(10(12)17-6-2)19-18(13,14-3)15-4/h8H,5-7H2,1-4H3",WSORODGWGUUOBO-UHFFFAOYSA-N,CCOC(=O)CC(S[P](=O)(OC)OC)C(=O)OCC,-1.6223,0.8588499999999999,2,G2
B-1718,"thiocyanic acid, ammonium salt",InChI=1S/CHNS.H3N/c2-1-3;/h3H;1H3,SOIFLUNRINLCBN-UHFFFAOYSA-N,[NH4+].[S-]C#N,0.9178,0.10033919970000005,2,G3
B-1746,"2-furancarboxaldehyde, 5-(methoxymethyl)-","InChI=1S/C7H8O3/c1-9-5-7-3-2-6(4-8)10-7/h2-4H,5H2,1H3",ASHVULSQMDWKFO-UHFFFAOYSA-N,COCc1oc(C=O)cc1,-0.4992,0.23824786295,2,G3
B-1813,"naphthalene, 2-(2-methylpropoxy)-","InChI=1S/C14H16O/c1-11(2)10-15-14-8-7-12-5-3-4-6-13(12)9-14/h3-9,11H,10H2,1-2H3",XOHIHZHSDMWWMS-UHFFFAOYSA-N,CC(C)COc1ccc2ccccc2c1,-5.2117,0.5838694118500003,2,G2
B-1915,acid red 18,"InChI=1S/C20H14N2O10S3.3Na/c23-16-7-5-11-9-12(33(24,25)26)10-18(35(30,31)32)19(11)20(16)22-21-15-6-8-17(34(27,28)29)14-4-2-1-3-13(14)15;;;/h1-10,21H,(H,24,25,26)(H,27,28,29)(H,30,31,32);;;/q;3*+1/p-3/b22-20+;;;",IVNZBWNBYXERPK-DZGBHZPSSA-K,[Na+].[Na+].[Na+].[O-][S](=O)(=O)c1cc2C=CC(=O)\C(=N/Nc3ccc(c4ccccc34)[S]([O-])(=O)=O)c2c(c1)[S]([O-])(=O)=O,-0.8783,0.29075733365,2,G3
B-1920,"4,4'-dicyano-4,4'azo-di-valeric acid","InChI=1S/C12H16N4O4/c1-11(7-13,5-3-9(17)18)15-16-12(2,8-14)6-4-10(19)20/h3-6H2,1-2H3,(H,17,18)(H,19,20)/p-2/t11-,12+",VFXXTYGQYWRHJP-TXEJJXNPSA-L,C[C@@](CCC([O-])=O)(N=N[C@](C)(CCC([O-])=O)C#N)C#N,-2.0083,0.2661598409500001,2,G3
B-1966,"1-butanone, 1-(4-fluorophenyl)-4-(4-hydroxy-4-ph","InChI=1S/C21H24FNO2/c22-19-10-8-17(9-11-19)20(24)7-4-14-23-15-12-21(25,13-16-23)18-5-2-1-3-6-18/h1-3,5-6,8-11,25H,4,7,12-16H2",FEFFZKPQSVTBAY-UHFFFAOYSA-N,OC1(CCN(CCCC(=O)c2ccc(F)cc2)CC1)c3ccccc3,-4.1183,0.6241499999999998,2,G2
B-1980,"2,3-dichloronitrobenzene",InChI=1S/C6H3Cl2NO2/c7-4-2-1-3-5(6(4)8)9(10)11/h1-3H,CMVQZRLQEOAYSW-UHFFFAOYSA-N,[O-][N+](=O)c1cccc(Cl)c1Cl,-3.4881,0.014786485900000201,2,G3
B-2040,fuberidazole,"InChI=1S/C11H8N2O/c1-2-5-9-8(4-1)12-11(13-9)10-6-3-7-14-10/h1-7H,(H,12,13)",UYJUZNLFJAWNEZ-UHFFFAOYSA-N,[nH]1c2ccccc2nc1c3occc3,-3.4139999999999997,0.038000000000000256,2,G3
B-2113,"2-benzothiazolesulfenamide, n,n-dicyclohexyl-","InChI=1S/C19H26N2S2/c1-3-9-15(10-4-1)21(16-11-5-2-6-12-16)23-19-20-17-13-7-8-14-18(17)22-19/h7-8,13-16H,1-6,9-12H2",CMAUJSNXENPPOF-UHFFFAOYSA-N,C1CCC(CC1)N(Sc2sc3ccccc3n2)C4CCCCC4,-6.7886,1.5199288587844582,4,G4
B-2335,chlorine,InChI=1S/Cl2/c1-2,KZBUYRJDOAKODT-UHFFFAOYSA-N,ClCl,-1.0513,0.041342722474506086,3,G5
B-2345,"1,3-dichloropropene, (z)","InChI=1S/C3H4Cl2/c4-2-1-3-5/h1-2H,3H2/b2-1-",UOORRWUZONOOLO-UPHRSURJSA-N,ClC\C=C/Cl,-1.7067,0.17379836240861213,4,G5
B-2360,mcpb-ethyl,"InChI=1S/C13H17ClO3/c1-3-16-13(15)5-4-8-17-12-7-6-11(14)9-10(12)2/h6-7,9H,3-5,8H2,1-2H3",XNKARWLGLZGMGX-UHFFFAOYSA-N,CCOC(=O)CCCOc1ccc(Cl)cc1C,-4.4095,0.0,1,G1
B-2362,bromperidol,"InChI=1S/C21H23BrFNO2/c22-18-7-5-17(6-8-18)21(26)11-14-24(15-12-21)13-1-2-20(25)16-3-9-19(23)10-4-16/h3-10,26H,1-2,11-15H2",RKLNONIVDFXQRX-UHFFFAOYSA-N,OC1(CCN(CCCC(=O)c2ccc(F)cc2)CC1)c3ccc(Br)cc3,-3.6693,0.0,1,G1
B-2363,"phenol, 2,3,4,6-tetrachloro-5-methyl-","InChI=1S/C7H4Cl4O/c1-2-3(8)5(10)6(11)7(12)4(2)9/h12H,1H3",ZGWPUIZMCCUZOK-UHFFFAOYSA-N,Cc1c(Cl)c(O)c(Cl)c(Cl)c1Cl,-4.6021,0.0,1,G1
B-2364,"phosphoric acid, ethyl dimethyl ester","InChI=1S/C4H11O4P/c1-4-8-9(5,6-2)7-3/h4H2,1-3H3",JQVXMIPNQMYRPE-UHFFFAOYSA-N,CCO[P](=O)(OC)OC,0.5112,0.0,1,G1
B-2365,terbufos sulfoxide,"InChI=1S/C9H21O3PS3/c1-6-11-13(14,12-7-2)15-8-16(10)9(3,4)5/h6-8H2,1-5H3",KKOYBOFPUBHPFO-UHFFFAOYSA-N,CCO[P](=S)(OCC)SC[S](=O)C(C)(C)C,-2.4421,0.0,1,G1
B-2366,nitrothal-isopropyl,"InChI=1S/C14H17NO6/c1-8(2)20-13(16)10-5-11(14(17)21-9(3)4)7-12(6-10)15(18)19/h5-9H,1-4H3",VJAWBEFMCIINFU-UHFFFAOYSA-N,CC(C)OC(=O)c1cc(cc(c1)[N+]([O-])=O)C(=O)OC(C)C,-5.0389,0.42055,2,G3
B-2368,azadirachtin,"InChI=1S/C35H44O16/c1-8-15(2)24(38)49-18-12-19(48-16(3)36)32(26(39)43-6)13-46-21-22(32)31(18)14-47-34(42,27(40)44-7)25(31)29(4,23(21)37)35-20-11-17(30(35,5)51-35)33(41)9-10-45-28(33)50-20/h8-10,17-23,25,28,37,41-42H,11-14H2,1-7H3/b15-8+/t17-,18+,19-,20+,21-,22-,23-,25+,28+,29-,30+,31+,32+,33+,34+,35+/m1/s1",FTNJWQUOZFUQQJ-NDAWSKJSSA-N,COC(=O)[C@@]1(O)OC[C@@]23[C@H](C[C@@H](OC(C)=O)[C@]4(CO[C@@H]([C@@H](O)[C@](C)([C@H]12)[C@]56O[C@@]5(C)[C@H]7C[C@@H]6O[C@@H]8OC=C[C@]78O)[C@H]34)C(=O)OC)OC(=O)C(/C)=C/C,-3.4428,0.0,1,G1
B-2369,ethephon,"InChI=1S/C2H6ClO3P/c3-1-2-7(4,5)6/h1-2H2,(H2,4,5,6)",UDPGUMQDCGORJQ-UHFFFAOYSA-N,O[P](O)(=O)CCCl,0.8401,0.0,1,G1
B-2370,methylcyclopentadienyl manganese,"InChI=1S/C6H7.3CO.Mn/c1-6-4-2-3-5-6;3*1-2;/h2-5H,1H3;;;;/q-1;;;;",IYSGJCJSRBFZSZ-UHFFFAOYSA-N,[Mn].C[c-]1cccc1.[C-]#[O+].[C-]#[O+].[C-]#[O+],-3.8762,0.23121787625000012,2,G3
B-2371,disperse blue 79,"InChI=1S/C24H27BrN6O10/c1-5-39-23-13-19(27-28-20-10-17(30(35)36)11-22(24(20)25)31(37)38)18(26-14(2)32)12-21(23)29(6-8-40-15(3)33)7-9-41-16(4)34/h10-13H,5-9H2,1-4H3,(H,26,32)",KOAZOWWCVCWYMN-UHFFFAOYSA-N,CCOc1cc(N=Nc2cc(cc(c2Br)[N+]([O-])=O)[N+]([O-])=O)c(NC(C)=O)cc1N(CCOC(C)=O)CCOC(C)=O,-8.8336,0.0,1,G1
B-2372,landrin,"InChI=1S/C11H15NO2/c1-7-5-8(2)9(3)10(6-7)14-11(13)12-4/h5-6H,1-4H3,(H,12,13)",NYOKZHDTNBDPOB-UHFFFAOYSA-N,CNC(=O)Oc1cc(C)cc(C)c1C,-1.9851,0.0,1,G1
B-2373,propagermanium,"InChI=1S/C6H10Ge2O7/c9-5(10)1-3-7(13)15-8(14)4-2-6(11)12/h1-4H2,(H,9,10)(H,11,12)",XEABSBMNTNXEJM-UHFFFAOYSA-N,OC(=O)CC[Ge](=O)O[Ge](=O)CCC(O)=O,-1.4932,0.0,1,G1
B-2375,"o1,o3-diisopropyl-glycerol","InChI=1S/C9H20O3/c1-7(2)11-5-9(10)6-12-8(3)4/h7-10H,5-6H2,1-4H3",AJJGRBMYVRSEES-UHFFFAOYSA-N,CC(C)OCC(O)COC(C)C,0.0549,0.0,1,G1
B-2376,"benzoic acid, 5-acetyl-2-hydroxy-","InChI=1S/C9H8O4/c1-5(10)6-2-3-8(11)7(4-6)9(12)13/h2-4,11H,1H3,(H,12,13)/p-1",NZRDKNBIPVLNHA-UHFFFAOYSA-M,CC(=O)c1ccc(O)c(c1)C([O-])=O,-2.2304,0.0,1,G1
B-2377,"propane, 1,2,2,3-tetrachloro-","InChI=1S/C3H4Cl4/c4-1-3(6,7)2-5/h1-2H2",UDPHJTAYHSSOQB-UHFFFAOYSA-N,ClCC(Cl)(Cl)CCl,-2.5785,0.0,1,G1
B-2378,periplocin,"InChI=1S/C36H56O13/c1-18-30(24(37)14-27(39)47-18)46-17-25-28(40)31(44-4)29(41)32(49-25)48-20-5-9-33(2)22-6-10-34(3)21(19-13-26(38)45-16-19)8-12-36(34,43)23(22)7-11-35(33,42)15-20/h13,18,20-25,27-32,37,39-43H,5-12,14-17H2,1-4H3/t18?,20-,21+,22?,23?,24?,25?,27-,28+,29?,30-,31?,32+,33+,34+,35-,36-/m0/s1",JVFYCULORCKYMD-WSSBEIOBSA-N,COC1[C@H](O)C(CO[C@@H]2C(O)C[C@@H](O)OC2C)O[C@@H](O[C@H]3CC[C@]4(C)C5CC[C@]6(C)[C@H](CC[C@]6(O)C5CC[C@]4(O)C3)C7=CC(=O)OC7)C1O,-1.94,0.0,1,G1
B-2379,"1,4-benzenedicarboxamide, n,n,n',n'-tetramethyl-","InChI=1S/C12H16N2O2/c1-13(2)11(15)9-5-7-10(8-6-9)12(16)14(3)4/h5-8H,1-4H3",MKIKJJUYURBXJT-UHFFFAOYSA-N,CN(C)C(=O)c1ccc(cc1)C(=O)N(C)C,0.2656,0.0,1,G1
B-2380,"3-pyridinecarboxamide, n-2-pyridinyl-","InChI=1S/C11H9N3O/c15-11(9-4-3-6-12-8-9)14-10-5-1-2-7-13-10/h1-8H,(H,13,14,15)",QZNPXKRALPFXPR-UHFFFAOYSA-N,O=C(Nc1ccccn1)c2cccnc2,-2.9771,0.0,1,G1
B-2381,phosphamidon,"InChI=1S/C10H19ClNO5P/c1-6-12(7-2)10(13)9(11)8(3)17-18(14,15-4)16-5/h6-7H2,1-5H3/b9-8-",RGCLLPNLLBQHPF-HJWRWDBZSA-N,CCN(CC)C(=O)\C(Cl)=C(/C)O[P](=O)(OC)OC,0.5233,0.0,1,G1
B-2382,bromofenoxim,"InChI=1S/C13H7Br2N3O6/c14-9-3-7(4-10(15)13(9)19)6-16-24-12-2-1-8(17(20)21)5-11(12)18(22)23/h1-6,16H",VTQWKUZUPOTXEH-UHFFFAOYSA-N,[O-][N+](=O)c1ccc(ONC=C2C=C(Br)C(=O)C(=C2)Br)c(c1)[N+]([O-])=O,-6.6637,0.0,1,G1
B-2385,n-nitrososarcosine,"InChI=1S/C3H6N2O3/c1-5(4-8)2-3(6)7/h2H2,1H3,(H,6,7)",HJMPSKKJHVWPBK-UHFFFAOYSA-N,CN(CC(O)=O)N=O,0.9278,0.0,1,G1
B-2386,"imidodicarbonimidic diamide, n-1-naphthalenyl-","InChI=1S/C12H13N5/c13-11(14)17-12(15)16-10-7-3-5-8-4-1-2-6-9(8)10/h1-7H,(H6,13,14,15,16,17)",UUBZPMKBMHXGNE-UHFFFAOYSA-N,NC(=N)NC(=N)Nc1cccc2ccccc12,-2.3151,0.0,1,G1
B-2387,kitazine,"InChI=1S/C11H17O3PS/c1-3-13-15(12,14-4-2)16-10-11-8-6-5-7-9-11/h5-9H,3-4,10H2,1-2H3",XFMJUIKWKVJNDY-UHFFFAOYSA-N,CCO[P](=O)(OCC)SCc1ccccc1,-2.4155,0.0,1,G1
B-2388,procion blue mx-r,"InChI=1S/C23H14Cl2N6O8S2/c24-21-29-22(25)31-23(30-21)28-12-7-9(5-6-14(12)40(34,35)36)27-13-8-15(41(37,38)39)18(26)17-16(13)19(32)10-3-1-2-4-11(10)20(17)33/h1-8,27H,26H2,(H,34,35,36)(H,37,38,39)(H,28,29,30,31)",RTLULCVBFCRQKI-UHFFFAOYSA-N,Nc1c(cc(Nc2ccc(c(Nc3nc(Cl)nc(Cl)n3)c2)[S](O)(=O)=O)c4C(=O)c5ccccc5C(=O)c14)[S](O)(=O)=O,0.1956,0.0,1,G1
B-2390,"1-butanamine, n-ethyl-","InChI=1S/C6H15N/c1-3-5-6-7-4-2/h7H,3-6H2,1-2H3",QHCCDDQKNUYGNC-UHFFFAOYSA-N,CCCCNCC,-0.4405,0.0072110591499999765,2,G3
B-2391,"2,4(1h,3h)-pteridinedione, 1,3-dimethyl-","InChI=1S/C8H8N4O2/c1-11-6-5(9-3-4-10-6)7(13)12(2)8(11)14/h3-4H,1-2H3",LMXZVISHHDYBFW-UHFFFAOYSA-N,CN1C(=O)N(C)c2nccnc2C1=O,-1.4598,0.0,1,G1
B-2392,"7-nitro-2,2-dimethyl-2,3-dihydrobenzofuran","InChI=1S/C10H11NO3/c1-10(2)6-7-4-3-5-8(11(12)13)9(7)14-10/h3-5H,6H2,1-2H3",ZQZNLPNVEXRNNG-UHFFFAOYSA-N,CC1(C)Cc2cccc(c2O1)[N+]([O-])=O,-3.2068,0.0,1,G1
B-2394,"l-cysteine, n-acetyl-s-(3,4-dichlorophenyl)-","InChI=1S/C11H11Cl2NO3S/c1-6(15)14-10(11(16)17)5-18-7-2-3-8(12)9(13)4-7/h2-4,10H,5H2,1H3,(H,14,15)(H,16,17)/t10-/m0/s1",JYWAYDDGOPHFIS-JTQLQIEISA-N,CC(=O)N[C@@H](CSc1ccc(Cl)c(Cl)c1)C(O)=O,-2.8868,0.0,1,G1
B-2396,"2(1h)-pyridinone, 5-iodo-","InChI=1S/C5H4INO/c6-4-1-2-5(8)7-3-4/h1-3H,(H,7,8)",ZDJUNNCVIDKJAN-UHFFFAOYSA-N,IC1=CNC(=O)C=C1,-1.7423,0.0,1,G1
B-2397,guazatine free base,"InChI=1S/C18H41N7/c19-17(20)24-15-11-7-3-1-5-9-13-23-14-10-6-2-4-8-12-16-25-18(21)22/h23H,1-16H2,(H4,19,20,24)(H4,21,22,25)",RONFGUROBZGJKP-UHFFFAOYSA-N,NC(N)=NCCCCCCCCNCCCCCCCCN=C(N)N,0.3322,0.0,1,G1
B-2398,2-diethylamino-4-ethylamino-6-methoxy-s-triazi*,"InChI=1S/C10H19N5O/c1-5-11-8-12-9(15(6-2)7-3)14-10(13-8)16-4/h5-7H2,1-4H3,(H,11,12,13,14)",MVILCVSEDHFDSS-UHFFFAOYSA-N,CCNc1nc(OC)nc(n1)N(CC)CC,-2.9987,0.0,1,G1
B-2399,"propanoic acid, 2-hydroxy-, 2-butoxy-1-methyl-2-","InChI=1S/C10H18O5/c1-4-5-6-14-10(13)8(3)15-9(12)7(2)11/h7-8,11H,4-6H2,1-3H3",QRCKUXOGGLKXGH-UHFFFAOYSA-N,CCCCOC(=O)C(C)OC(=O)C(C)O,-1.3752,0.0,1,G1
B-2400,"urea, n,n''-methylenebis-","InChI=1S/C3H8N4O2/c4-2(8)6-1-7-3(5)9/h1H2,(H3,4,6,8)(H3,5,7,9)",KQVLODRFGIKJHZ-UHFFFAOYSA-N,NC(=O)NCNC(N)=O,-0.6525,0.0,1,G1
B-2401,1-amino-2-butanol,"InChI=1S/C4H11NO/c1-2-4(6)3-5/h4,6H,2-3,5H2,1H3",KODLUXHSIZOKTG-UHFFFAOYSA-N,CCC(O)CN,1.0499,0.0,1,G1
B-2402,dechlorane plus,"InChI=1S/C18H12Cl12/c19-9-10(20)15(25)7-3-4-8-6(2-1-5(7)13(9,23)17(15,27)28)14(24)11(21)12(22)16(8,26)18(14,29)30/h5-8H,1-4H2",UGQQAJOWXNCOPY-UHFFFAOYSA-N,ClC1=C(Cl)C2(Cl)C3CCC4C(CCC3C1(Cl)C2(Cl)Cl)C5(Cl)C(=C(Cl)C4(Cl)C5(Cl)Cl)Cl,-13.1719,0.0,1,G1
B-2404,isonicotinic acid n-oxide,"InChI=1S/C6H5NO3/c8-6(9)5-1-3-7(10)4-2-5/h1-4H,(H,8,9)",QCWTWMJMLSKQCJ-UHFFFAOYSA-N,OC(=O)c1cc[n+]([O-])cc1,-1.102,0.0,1,G1
B-2405,"piperidine, 3-propyl-,","InChI=1S/C8H17N/c1-2-4-8-5-3-6-9-7-8/h8-9H,2-7H2,1H3",CRZUKKNUMNKBFJ-UHFFFAOYSA-N,CCCC1CCCNC1,-1.011,0.0,1,G1
B-2406,"2-propanol, 1-chloro-, phosphate (3:1)","InChI=1S/C9H18Cl3O4P/c1-7(4-10)14-17(13,15-8(2)5-11)16-9(3)6-12/h7-9H,4-6H2,1-3H3",KVMPUXDNESXNOH-UHFFFAOYSA-N,CC(CCl)O[P](=O)(OC(C)CCl)OC(C)CCl,-2.4361,0.07213921470241949,3,G5
B-2411,azidamfenicol,"InChI=1S/C11H13N5O5/c12-15-13-5-10(18)14-9(6-17)11(19)7-1-3-8(4-2-7)16(20)21/h1-4,9,11,17,19H,5-6H2,(H,14,18)/t9-,11-/m1/s1",SGRUZFCHLOFYHZ-MWLCHTKSSA-N,OC[C@@H](NC(=O)CN=[N+]=[N-])[C@H](O)c1ccc(cc1)[N+]([O-])=O,-1.1692,0.0,1,G1
B-2413,4-bromo-trans-crotonic acid,"InChI=1S/C4H5BrO2/c5-3-1-2-4(6)7/h1-2H,3H2,(H,6,7)/b2-1+",DOTGZROJTAUYFQ-OWOJBTEDSA-N,OC(=O)\C=C\CBr,-0.7403,0.0,1,G1
B-2415,"barbituric acid, 5,5-di-2-butenyl-","InChI=1S/C12H16N2O3/c1-3-5-7-12(8-6-4-2)9(15)13-11(17)14-10(12)16/h3-6H,7-8H2,1-2H3,(H2,13,14,15,16,17)/b5-3+,6-4+",OJXLDQJJHBLYOT-GGWOSOGESA-N,C/C=C/CC1(C\C=C\C)C(=O)NC(=O)NC1=O,-2.1973,0.0,1,G1
B-2416,"3-furancarboxylic acid, 2-methyl-5-(1,2,3,4-tetr","InChI=1S/C10H14O7/c1-4-5(10(15)16)2-7(17-4)9(14)8(13)6(12)3-11/h2,6,8-9,11-14H,3H2,1H3,(H,15,16)/p-1/t6-,8-,9+/m1/s1",QCJQVLKXEYQMLF-VDAHYXPESA-M,Cc1oc(cc1C([O-])=O)[C@H](O)[C@H](O)[C@H](O)CO,-1.2774,0.0,1,G1
B-2419,"propanoic acid, 3-ethoxy-, methyl ester","InChI=1S/C6H12O3/c1-3-9-5-4-6(7)8-2/h3-5H2,1-2H3",HSDFKDZBJMDHFF-UHFFFAOYSA-N,CCOCCC(=O)OC,-0.0719,0.0,1,G1
B-2420,"propanoic acid, 3-ethoxy-, butyl ester","InChI=1S/C9H18O3/c1-3-5-7-12-9(10)6-8-11-4-2/h3-8H2,1-2H3",MVWVAXBILFBQIZ-UHFFFAOYSA-N,CCCCOC(=O)CCOCC,-1.6391,0.0,1,G1
B-2421,"propionic acid, 3-ethoxy-, pentyl ester","InChI=1S/C10H20O3/c1-3-5-6-8-13-10(11)7-9-12-4-2/h3-9H2,1-2H3",LECMFIIQEQTPNP-UHFFFAOYSA-N,CCCCCOC(=O)CCOCC,-2.1956,0.0,1,G1
B-2422,"propionic acid, 3-ethoxy-, hexyl ester","InChI=1S/C11H22O3/c1-3-5-6-7-9-14-11(12)8-10-13-4-2/h3-10H2,1-2H3",ZASWBHFDPXLANO-UHFFFAOYSA-N,CCCCCCOC(=O)CCOCC,-2.8289,0.0,1,G1
B-2423,"propionic acid, 3-propoxy-, methyl ester","InChI=1S/C7H14O3/c1-3-5-10-6-4-7(8)9-2/h3-6H2,1-2H3",DMHHINXESLPPMV-UHFFFAOYSA-N,CCCOCCC(=O)OC,-0.6334,0.0,1,G1
B-2424,"propanoic acid, 3-propoxy-, propyl ester","InChI=1S/C9H18O3/c1-3-6-11-8-5-9(10)12-7-4-2/h3-8H2,1-2H3",YTUFRRBSSNRYID-UHFFFAOYSA-N,CCCOCCC(=O)OCCC,-1.6848,0.0,1,G1
B-2425,"propanoic acid, 3-butoxy-, butyl ester","InChI=1S/C11H22O3/c1-3-5-8-13-10-7-11(12)14-9-6-4-2/h3-10H2,1-2H3",BMOACRKLCOIODC-UHFFFAOYSA-N,CCCCOCCC(=O)OCCCC,-2.4029,0.0,1,G1
B-2431,Valylglycine,"InChI=1S/C7H14N2O3/c1-4(2)6(8)7(12)9-3-5(10)11/h4,6H,3,8H2,1-2H3,(H,9,12)(H,10,11)",IOUPEELXVYPCPG-UHFFFAOYSA-N,CC(C)C(N)C(=O)NCC(O)=O,0.4579,0.0,1,G1
B-2432,"1,3-benzenedicarboxamide, n,n,n',n'-tetramethyl-","InChI=1S/C12H16N2O2/c1-13(2)11(15)9-6-5-7-10(8-9)12(16)14(3)4/h5-8H,1-4H3",SVWDHNLFFDIWHM-UHFFFAOYSA-N,CN(C)C(=O)c1cccc(c1)C(=O)N(C)C,0.48700000000000004,0.0,1,G1
B-2433,"butanoic acid, 4,4'-diselenobis-","InChI=1S/C8H14O4Se2/c9-7(10)3-1-5-13-14-6-2-4-8(11)12/h1-6H2,(H,9,10)(H,11,12)",WORSJCPMKUOXAD-UHFFFAOYSA-N,OC(=O)CCC[Se][Se]CCCC(O)=O,-2.2471,0.0,1,G1
B-2434,ethyl 4-chlorophenoxyacetate,"InChI=1S/C10H11ClO3/c1-2-13-10(12)7-14-9-5-3-8(11)4-6-9/h3-6H,2,7H2,1H3",QULRDJFRGVHKLN-UHFFFAOYSA-N,CCOC(=O)COc1ccc(Cl)cc1,-2.4206,0.0,1,G1
B-2437,"1,2,4-triazolidine-3,5-dione, 4-methyl-1-phenyl-","InChI=1S/C9H9N3O2/c1-11-8(13)10-12(9(11)14)7-5-3-2-4-6-7/h2-6H,1H3,(H,10,13)",XVVORNVNYKBZKT-UHFFFAOYSA-N,CN1C(=O)NN(C1=O)c2ccccc2,-2.9804,0.0,1,G1
B-2438,"benzamide, 2-(2-propenyloxy)-","InChI=1S/C10H11NO2/c1-2-7-13-9-6-4-3-5-8(9)10(11)12/h2-6H,1,7H2,(H2,11,12)",FZEIWORKISALCO-UHFFFAOYSA-N,NC(=O)c1ccccc1OCC=C,-2.2273,0.0,1,G1