ID,Name,InChI,InChIKey,SMILES,Solubility,SD,Occurrences,Group
C-1336,morpholin-4-ylcarbonylmethyl  acetylsalicylate; n-[2-(2-acetoxybenzoyloxy)acetyl]morpholine,"InChI=1S/C15H17NO6/c1-11(17)22-13-5-3-2-4-12(13)15(19)21-10-14(18)16-6-8-20-9-7-16/h2-5H,6-10H2,1H3",FLVLUDPFVUXEFV-UHFFFAOYSA-N,CC(=O)OC1=CC=CC=C1C(=O)OCC(=O)N2CCOCC2,-1.8,0.0,1,G1
C-1338,methylsulfonylmethyl  acetylsalicylate;  2-acetoxybenzoic acid (methylsulfonyl)methyl ester,"InChI=1S/C11H12O6S/c1-8(12)17-10-6-4-3-5-9(10)11(13)16-7-18(2,14)15/h3-6H,7H2,1-2H3",PTLSEGBRIAKFIJ-UHFFFAOYSA-N,CC(=O)OC1=CC=CC=C1C(=O)OC[S](C)(=O)=O,-3.39,0.0,1,G1
C-1339,1-amino-2-naphthalenesulfonic  acid,"InChI=1S/C10H9NO3S/c11-10-8-4-2-1-3-7(8)5-6-9(10)15(12,13)14/h1-6H,11H2,(H,12,13,14)",ONZWNZGVZFLMNZ-UHFFFAOYSA-N,NC1=C(C=CC2=C1C=CC=C2)[S](O)(=O)=O,-2.96,0.0,1,G1
C-1340,fluroxypyr-meptyl;  fluroxypyr 1-methylheptyl ester,"InChI=1S/C15H21Cl2FN2O3/c1-3-4-5-6-7-9(2)23-10(21)8-22-15-12(17)13(19)11(16)14(18)20-15/h9H,3-8H2,1-2H3,(H2,19,20)",OLZQTUCTGLHFTQ-UHFFFAOYSA-N,CCCCCCC(C)OC(=O)COC1=NC(=C(Cl)C(=C1Cl)N)F,-6.43,0.09034999999999993,2,G3
C-1341,"fluoroimide;  2,3-dichloro-n-(4-fluorophenyl)maleimide",InChI=1S/C10H4Cl2FNO2/c11-7-8(12)10(16)14(9(7)15)6-3-1-5(13)2-4-6/h1-4H,IPENDKRRWFURRE-UHFFFAOYSA-N,FC1=CC=C(C=C1)N2C(=O)C(=C(Cl)C2=O)Cl,-4.64,0.0,1,G1
C-1342,3-benzoyl-5-fluorouracil,"InChI=1S/C11H7FN2O3/c12-8-6-13-11(17)14(10(8)16)9(15)7-4-2-1-3-5-7/h1-6H,(H,13,17)",OAPBZIITNDJWQW-UHFFFAOYSA-N,FC1=CNC(=O)N(C1=O)C(=O)C2=CC=CC=C2,-2.26,0.0,1,G1
C-1343,2-acetoxybenzoic acid dipropylcarbamoylmethyl ester,"InChI=1S/C17H23NO5/c1-4-10-18(11-5-2)16(20)12-22-17(21)14-8-6-7-9-15(14)23-13(3)19/h6-9H,4-5,10-12H2,1-3H3",XCEUBKDKAYYEQR-UHFFFAOYSA-N,CCCN(CCC)C(=O)COC(=O)C1=CC=CC=C1OC(C)=O,-2.65,0.0,1,G1
C-1344,ferimzone,"InChI=1S/C15H18N4/c1-10-7-5-6-8-14(10)13(4)18-19-15-16-11(2)9-12(3)17-15/h5-9H,1-4H3,(H,16,17,19)",GOWLARCWZRESHU-UHFFFAOYSA-N,CC1=CC(=NC(=N1)NN=C(C)C2=CC=CC=C2C)C,-3.2,0.0,1,G1
C-1345,n-[2-(2-acetoxybenzoyloxy)acetyl]glycineamide,"InChI=1S/C13H14N2O6/c1-8(16)21-10-5-3-2-4-9(10)13(19)20-7-12(18)15-6-11(14)17/h2-5H,6-7H2,1H3,(H2,14,17)(H,15,18)",UDKPETZNUFLIFG-UHFFFAOYSA-N,CC(=O)OC1=CC=CC=C1C(=O)OCC(=O)NCC(N)=O,-2.52,0.0,1,G1
C-1346,"n1,n1,n4-trimethyl-n4-(butanoyl)sulfanilamide","InChI=1S/C13H20N2O3S/c1-5-6-13(16)15(4)11-7-9-12(10-8-11)19(17,18)14(2)3/h7-10H,5-6H2,1-4H3",HVRPQVNLNIHIRC-UHFFFAOYSA-N,CCCC(=O)N(C)C1=CC=C(C=C1)[S](=O)(=O)N(C)C,-2.16,0.0,1,G1
C-1347,chloroquine,"InChI=1S/C18H26ClN3/c1-4-22(5-2)12-6-7-14(3)21-17-10-11-20-18-13-15(19)8-9-16(17)18/h8-11,13-14H,4-7,12H2,1-3H3,(H,20,21)",WHTVZRBIWZFKQO-UHFFFAOYSA-N,CCN(CC)CCCC(C)NC1=CC=NC2=C1C=CC(=C2)Cl,-2.83,0.0,1,G1
C-1348,"n,n-diethyl-2-[(2-acetoxy)benzoyloxy]propanoic acid amide","InChI=1S/C16H21NO5/c1-5-17(6-2)15(19)11(3)21-16(20)13-9-7-8-10-14(13)22-12(4)18/h7-11H,5-6H2,1-4H3",OHSFPCVLIJXOLL-UHFFFAOYSA-N,CCN(CC)C(=O)C(C)OC(=O)C1=CC=CC=C1OC(C)=O,-1.6,0.0,1,G1
C-1349,2-acetoxybenzoic acid diisopropylcarbamoylmethyl ester,"InChI=1S/C17H23NO5/c1-11(2)18(12(3)4)16(20)10-22-17(21)14-8-6-7-9-15(14)23-13(5)19/h6-9,11-12H,10H2,1-5H3",WRGWFXXPBRCSIH-UHFFFAOYSA-N,CC(C)N(C(C)C)C(=O)COC(=O)C1=CC=CC=C1OC(C)=O,-3.25,0.0,1,G1
C-1350,n-acetylacyclovir,"InChI=1S/C10H13N5O4/c1-6(17)12-10-13-8-7(9(18)14-10)11-4-15(8)5-19-3-2-16/h4,16H,2-3,5H2,1H3,(H2,12,13,14,17,18)",DJMINGJGFGSDDB-UHFFFAOYSA-N,CC(=O)NC1=NC2=C(N=C[N]2COCCO)C(=O)N1,-1.92,0.0,1,G1
C-1351,tolfenamic acid;  n-(2-methyl-3-chlorophenyl)anthranilic  acid,"InChI=1S/C14H12ClNO2/c1-9-11(15)6-4-8-12(9)16-13-7-3-2-5-10(13)14(17)18/h2-8,16H,1H3,(H,17,18)",YEZNLOUZAIOMLT-UHFFFAOYSA-N,CC1=C(NC2=CC=CC=C2C(O)=O)C=CC=C1Cl,-5.06,0.0,1,G1
C-1352,nalidixic acid methyl ester;  methyl  nalidixate,"InChI=1S/C13H14N2O3/c1-4-15-7-10(13(17)18-3)11(16)9-6-5-8(2)14-12(9)15/h5-7H,4H2,1-3H3",HAXZNPSPJMKMIQ-UHFFFAOYSA-N,CCN1C=C(C(=O)OC)C(=O)C2=C1N=C(C)C=C2,-2.7,0.0,1,G1
C-1353,"2,3,4,4'-tetrachlorobiphenyl",InChI=1S/C12H6Cl4/c13-8-3-1-7(2-4-8)9-5-6-10(14)12(16)11(9)15/h1-6H,XLDBTRJKXLKYTC-UHFFFAOYSA-N,ClC1=CC=C(C=C1)C2=C(Cl)C(=C(Cl)C=C2)Cl,-6.88,0.0,1,G1
C-1354,benzyl  5-fluorouracil-1-carboxylate;  1-benzyloxycarbonyl-5-fluorouracil,"InChI=1S/C12H9FN2O4/c13-9-6-15(11(17)14-10(9)16)12(18)19-7-8-4-2-1-3-5-8/h1-6H,7H2,(H,14,16,17)",YJRPDIKAMSSUAS-UHFFFAOYSA-N,FC1=CN(C(=O)NC1=O)C(=O)OCC2=CC=CC=C2,-2.82,0.0,1,G1
C-1355,hexythiazox,"InChI=1S/C17H21ClN2O2S/c1-11-15(12-7-9-13(18)10-8-12)23-17(22)20(11)16(21)19-14-5-3-2-4-6-14/h7-11,14-15H,2-6H2,1H3,(H,19,21)",XGWIJUOSCAQSSV-UHFFFAOYSA-N,CC1C(SC(=O)N1C(=O)NC2CCCCC2)C3=CC=C(Cl)C=C3,-5.85,0.0,1,G1
C-1357,phenyl  5-fluorouracil-1-carboxylate;  1-phenyloxycarbonyl-5-fluorouracil,"InChI=1S/C11H7FN2O4/c12-8-6-14(10(16)13-9(8)15)11(17)18-7-4-2-1-3-5-7/h1-6H,(H,13,15,16)",HPLGRDDPZODNAW-UHFFFAOYSA-N,FC1=CN(C(=O)NC1=O)C(=O)OC2=CC=CC=C2,-2.44,0.0,1,G1
C-1358,"n1,n1,n4-trimethyl-n4-pentanoylsulfanilamide","InChI=1S/C14H22N2O3S/c1-5-6-7-14(17)16(4)12-8-10-13(11-9-12)20(18,19)15(2)3/h8-11H,5-7H2,1-4H3",HCFYDULVKOUISH-UHFFFAOYSA-N,CCCCC(=O)N(C)C1=CC=C(C=C1)[S](=O)(=O)N(C)C,-2.85,0.0,1,G1
C-1361,"n9-(n,n-diethylglycyloxymethyl)allopurinol","InChI=1S/C12H17N5O3/c1-3-16(4-2)6-10(18)20-8-17-11-9(5-15-17)12(19)14-7-13-11/h5,7H,3-4,6,8H2,1-2H3,(H,13,14,19)",YVDDVGOVEDYMLX-UHFFFAOYSA-N,CCN(CC)CC(=O)OC[N]1N=CC2=C1N=CNC2=O,-1.79,0.0,1,G1
C-1362,phenyl  5-fluorouracil-3-carboxylate;  3-phenyloxycarbonyl-5-fluorouracil,"InChI=1S/C11H7FN2O4/c12-8-6-13-10(16)14(9(8)15)11(17)18-7-4-2-1-3-5-7/h1-6H,(H,13,16)",OKVXWLFRHOXZPA-UHFFFAOYSA-N,FC1=CNC(=O)N(C(=O)OC2=CC=CC=C2)C1=O,-3.22,0.0,1,G1
C-1363,hexaconazole,"InChI=1S/C14H17Cl2N3O/c1-2-3-6-14(20,8-19-10-17-9-18-19)12-5-4-11(15)7-13(12)16/h4-5,7,9-10,20H,2-3,6,8H2,1H3",STMIIPIFODONDC-UHFFFAOYSA-N,CCCCC(O)(C[N]1C=NC=N1)C2=C(Cl)C=C(Cl)C=C2,-4.27,0.0,1,G1
C-1364,guanosine,"InChI=1S/C10H13N5O5/c11-10-13-7-4(8(19)14-10)12-2-15(7)9-6(18)5(17)3(1-16)20-9/h2-3,5-6,9,16-18H,1H2,(H3,11,13,14,19)",NYHBQMYGNKIUIF-UHFFFAOYSA-N,NC1=NC2=C(N=C[N]2C3OC(CO)C(O)C3O)C(=O)N1,-2.74,0.0,1,G1
C-1366,2-acetoxybenzoic acid phenyl ester,"InChI=1S/C15H12O4/c1-11(16)18-14-10-6-5-9-13(14)15(17)19-12-7-3-2-4-8-12/h2-10H,1H3",PSBAIJVSCTZDDB-UHFFFAOYSA-N,CC(=O)OC1=CC=CC=C1C(=O)OC2=CC=CC=C2,-4.11,0.0,1,G1
C-1370,aclonifen;  2-chloro-6-nitro-3-phenoxyaniline,"InChI=1S/C12H9ClN2O3/c13-11-10(18-8-4-2-1-3-5-8)7-6-9(12(11)14)15(16)17/h1-7H,14H2",DDBMQDADIHOWIC-UHFFFAOYSA-N,NC1=C(Cl)C(=CC=C1[N+]([O-])=O)OC2=CC=CC=C2,-5.03,0.0,1,G1
C-1372,"n1,n1-dimethyl-n4-hexanoyl-n4-methylsulfanilamide; n-[(4-dimethylsulfamoyl)phenyl]-n-methylhexanoic acid amide","InChI=1S/C15H24N2O3S/c1-5-6-7-8-15(18)17(4)13-9-11-14(12-10-13)21(19,20)16(2)3/h9-12H,5-8H2,1-4H3",XKZWBUMTAFVMJT-UHFFFAOYSA-N,CCCCCC(=O)N(C)C1=CC=C(C=C1)[S](=O)(=O)N(C)C,-2.95,0.0,1,G1
C-1373,"n,o-diacetyl-6-deoxyacyclovir","InChI=1S/C12H15N5O4/c1-8(18)15-12-13-5-10-11(16-12)17(6-14-10)7-20-3-4-21-9(2)19/h5-6H,3-4,7H2,1-2H3,(H,13,15,16,18)",NZSQZKSAMAZAEC-UHFFFAOYSA-N,CC(=O)NC1=NC2=C(C=N1)N=C[N]2COCCOC(C)=O,-0.73,0.0,1,G1
C-1374,paclobutrazol,"InChI=1S/C15H20ClN3O/c1-15(2,3)14(20)13(19-10-17-9-18-19)8-11-4-6-12(16)7-5-11/h4-7,9-10,13-14,20H,8H2,1-3H3",RMOGWMIKYWRTKW-UHFFFAOYSA-N,CC(C)(C)C(O)C(CC1=CC=C(Cl)C=C1)[N]2C=NC=N2,-4.05,0.0,1,G1
C-1375,celiprolol,"InChI=1S/C20H33N3O4/c1-7-23(8-2)19(26)22-15-9-10-18(17(11-15)14(3)24)27-13-16(25)12-21-20(4,5)6/h9-11,16,21,25H,7-8,12-13H2,1-6H3,(H,22,26)",JOATXPAWOHTVSZ-UHFFFAOYSA-N,CCN(CC)C(=O)NC1=CC(=C(OCC(O)CNC(C)(C)C)C=C1)C(C)=O,-1.9,0.0,1,G1
C-1376,tefluthrin,"InChI=1S/C17H14ClF7O2/c1-6-11(19)13(21)7(14(22)12(6)20)5-27-15(26)10-8(16(10,2)3)4-9(18)17(23,24)25/h4,8,10H,5H2,1-3H3/b9-4-",ZFHGXWPMULPQSE-WTKPLQERSA-N,CC1=C(F)C(=C(COC(=O)C2C(\C=C(Cl)\C(F)(F)F)C2(C)C)C(=C1F)F)F,-7.32,0.0,1,G1
C-1377,n-2-(2-acetoxybenzoyloxy)acetylglycine ethyl ester,"InChI=1S/C15H17NO7/c1-3-21-14(19)8-16-13(18)9-22-15(20)11-6-4-5-7-12(11)23-10(2)17/h4-7H,3,8-9H2,1-2H3,(H,16,18)",RENNXOTVYDMFOD-UHFFFAOYSA-N,CCOC(=O)CNC(=O)COC(=O)C1=CC=CC=C1OC(C)=O,-1.87,0.0,1,G1
C-1378,"2,2',4,4'-tetrachlorodiphenyl  ether",InChI=1S/C12H6Cl4O/c13-7-1-3-11(9(15)5-7)17-12-4-2-8(14)6-10(12)16/h1-6H,ZRWRPGGXCSSBAO-UHFFFAOYSA-N,ClC1=CC(=C(OC2=CC=C(Cl)C=C2Cl)C=C1)Cl,-6.82,0.0,1,G1
C-1379,dicapthon;  dicaptan,"InChI=1S/C8H9ClNO5PS/c1-13-16(17,14-2)15-8-4-3-6(10(11)12)5-7(8)9/h3-5H,1-2H3",OTKXWJHPGBRXCR-UHFFFAOYSA-N,CO[P](=S)(OC)OC1=C(Cl)C=C(C=C1)[N+]([O-])=O,-4.68,0.18500000000000005,2,G3
C-1380,3-(phenoxycarboxymethyl)-5-fluorouracil; 3-(phenoxycarbonyloxymethyl)-5-fluorouracil,"InChI=1S/C12H9FN2O5/c13-9-6-14-11(17)15(10(9)16)7-19-12(18)20-8-4-2-1-3-5-8/h1-6H,7H2,(H,14,17)",SJJLAYXHDHWNSV-UHFFFAOYSA-N,FC1=CNC(=O)N(COC(=O)OC2=CC=CC=C2)C1=O,-2.45,0.0,1,G1
C-1381,flurecol-butyl;  flurenol-butyl ester,"InChI=1S/C18H18O3/c1-2-3-12-21-17(19)18(20)15-10-6-4-8-13(15)14-9-5-7-11-16(14)18/h4-11,20H,2-3,12H2,1H3",PSGPXWYGJGGEEG-UHFFFAOYSA-N,CCCCOC(=O)C1(O)C2=CC=CC=C2C3=C1C=CC=C3,-3.89,0.0,1,G1
C-1382,n-[4-(dimethylsulfamoyl)phenyl]-n-methylheptanoic acid amide,"InChI=1S/C16H26N2O3S/c1-5-6-7-8-9-16(19)18(4)14-10-12-15(13-11-14)22(20,21)17(2)3/h10-13H,5-9H2,1-4H3",HHMGSXBJVFFCGH-UHFFFAOYSA-N,CCCCCCC(=O)N(C)C1=CC=C(C=C1)[S](=O)(=O)N(C)C,-3.68,0.0,1,G1
C-1384,"n1,n4,n4-trimethyl-n1-(heptanoyl)sulfanilamide","InChI=1S/C16H26N2O3S/c1-5-6-7-8-9-16(19)18(4)22(20,21)15-12-10-14(11-13-15)17(2)3/h10-13H,5-9H2,1-4H3",QHVARHTXPQPYKM-UHFFFAOYSA-N,CCCCCCC(=O)N(C)[S](=O)(=O)C1=CC=C(C=C1)N(C)C,-3.68,0.0,1,G1
C-1385,anthracene-9-carboxylic acid;  9-carboxyanthracene,"InChI=1S/C15H10O2/c16-15(17)14-12-7-3-1-5-10(12)9-11-6-2-4-8-13(11)14/h1-9H,(H,16,17)",XGWFJBFNAQHLEF-UHFFFAOYSA-N,OC(=O)C1=C2C=CC=CC2=CC3=CC=CC=C13,-3.42,0.0,1,G1
C-1386,"n1,n1,n4-trimethyl-n4-(octanoyl)sulfanilamide; n-[(4-dimethylsulfamoyl)phenyl]-n-methyloctanoic acid amide","InChI=1S/C17H28N2O3S/c1-5-6-7-8-9-10-17(20)19(4)15-11-13-16(14-12-15)23(21,22)18(2)3/h11-14H,5-10H2,1-4H3",KPHZMBYXFKPLCC-UHFFFAOYSA-N,CCCCCCCC(=O)N(C)C1=CC=C(C=C1)[S](=O)(=O)N(C)C,-3.59,0.0,1,G1
C-1387,benazolin-ethyl,"InChI=1S/C11H10ClNO3S/c1-2-16-9(14)6-13-10-7(12)4-3-5-8(10)17-11(13)15/h3-5H,2,6H2,1H3",WQRCEBAZAUAUQC-UHFFFAOYSA-N,CCOC(=O)CN1C(=O)SC2=CC=CC(=C12)Cl,-3.76,0.0,1,G1
C-1388,"2,5-bis(acetoxymethyl)allopurinol","InChI=1S/C11H12N4O5/c1-7(16)19-5-14-4-12-10-9(11(14)18)3-15(13-10)6-20-8(2)17/h3-4H,5-6H2,1-2H3",DHIFEVBBJSAIAC-UHFFFAOYSA-N,CC(=O)OC[N]1C=C2C(=O)N(COC(C)=O)C=NC2=N1,-1.99,0.0,1,G1
C-1389,n-methyl-n-(2-(2'-acetoxy)benzoyloxy)acetylglycine ethyl ester,"InChI=1S/C16H19NO7/c1-4-22-15(20)9-17(3)14(19)10-23-16(21)12-7-5-6-8-13(12)24-11(2)18/h5-8H,4,9-10H2,1-3H3",ZEMRQSGEJWXCQZ-UHFFFAOYSA-N,CCOC(=O)CN(C)C(=O)COC(=O)C1=CC=CC=C1OC(C)=O,-2.55,0.0,1,G1
C-1391,naproxen carbamoylmethyl ester;  naproxen  ester va,"InChI=1S/C16H17NO4/c1-10(16(19)21-9-15(17)18)11-3-4-13-8-14(20-2)6-5-12(13)7-11/h3-8,10H,9H2,1-2H3,(H2,17,18)",COCAVGOWOPNYOD-UHFFFAOYSA-N,COC1=CC=C2C=C(C=CC2=C1)C(C)C(=O)OCC(N)=O,-3.93,0.0,1,G1
C-1392,azamethiphos,"InChI=1S/C9H10ClN2O5PS/c1-15-18(14,16-2)19-5-12-8-7(17-9(12)13)3-6(10)4-11-8/h3-4H,5H2,1-2H3",VNKBTWQZTQIWDV-UHFFFAOYSA-N,CO[P](=O)(OC)SCN1C(=O)OC2=CC(=CN=C12)Cl,-2.47,0.0,1,G1
C-1393,fluchloralin,"InChI=1S/C12H13ClF3N3O4/c1-2-4-17(5-3-13)11-9(18(20)21)6-8(12(14,15)16)7-10(11)19(22)23/h6-7H,2-5H2,1H3",MNFMIVVPXOGUMX-UHFFFAOYSA-N,CCCN(CCCl)C1=C(C=C(C=C1[N+]([O-])=O)C(F)(F)F)[N+]([O-])=O,-5.6,0.5244999999999997,2,G2
C-1394,naloxone,"InChI=1S/C19H21NO4/c1-2-8-20-9-7-18-15-11-3-4-12(21)16(15)24-17(18)13(22)5-6-19(18,23)14(20)10-11/h2-4,14,17,21,23H,1,5-10H2",UZHSEJADLWPNLE-UHFFFAOYSA-N,OC1=C2OC3C(=O)CCC4(O)C5CC(=C2C34CCN5CC=C)C=C1,-3.39,0.0,1,G1
C-1396,"succinimid-1-ylmethyl  acetylsalicylate;  n-[(2-acetoxy)benzoyloxymethyl]pyrrolidine-2,5-dione","InChI=1S/C14H13NO6/c1-9(16)21-11-5-3-2-4-10(11)14(19)20-8-15-12(17)6-7-13(15)18/h2-5H,6-8H2,1H3",LNIRSJVVXSYEBA-UHFFFAOYSA-N,CC(=O)OC1=CC=CC=C1C(=O)OCN2C(=O)CCC2=O,-2.77,0.0,1,G1
C-1399,desmedipham,"InChI=1S/C16H16N2O4/c1-2-21-15(19)18-13-9-6-10-14(11-13)22-16(20)17-12-7-4-3-5-8-12/h3-11H,2H2,1H3,(H,17,20)(H,18,19)",WZJZMXBKUWKXTQ-UHFFFAOYSA-N,CCOC(=O)NC1=CC(=CC=C1)OC(=O)NC2=CC=CC=C2,-4.52,0.05600000000000005,2,G3
C-1400,indoprofen,"InChI=1S/C17H15NO3/c1-11(17(20)21)12-6-8-14(9-7-12)18-10-13-4-2-3-5-15(13)16(18)19/h2-9,11H,10H2,1H3,(H,20,21)",RJMIEHBSYVWVIN-UHFFFAOYSA-N,CC(C(O)=O)C1=CC=C(C=C1)N2CC3=C(C=CC=C3)C2=O,-4.72,0.0,1,G1
C-1401,cloquintocet-mexyl,"InChI=1S/C18H22ClNO3/c1-3-4-5-7-13(2)23-17(21)12-22-16-10-9-15(19)14-8-6-11-20-18(14)16/h6,8-11,13H,3-5,7,12H2,1-2H3",COYBRKAVBMYYSF-UHFFFAOYSA-N,CCCCCC(C)OC(=O)COC1=CC=C(Cl)C2=CC=CN=C12,-5.62,0.06764999999999999,2,G3
C-1402,"n,o-diacetylacyclovir","InChI=1S/C12H15N5O5/c1-7(18)14-12-15-10-9(11(20)16-12)13-5-17(10)6-21-3-4-22-8(2)19/h5H,3-4,6H2,1-2H3,(H2,14,15,16,18,20)",VBHLKZHSCMQLTI-UHFFFAOYSA-N,CC(=O)NC1=NC2=C(N=C[N]2COCCOC(C)=O)C(=O)N1,-2.14,0.0,1,G1
C-1403,"2,2',3,5',6-pentachlorobiphenyl",InChI=1S/C12H5Cl5/c13-6-1-2-8(14)7(5-6)11-9(15)3-4-10(16)12(11)17/h1-5H,GXNNLIMMEXHBKV-UHFFFAOYSA-N,ClC1=CC=C(Cl)C(=C1)C2=C(Cl)C(=CC=C2Cl)Cl,-7.19,0.0,1,G1
C-1404,dichlofluanid,"InChI=1S/C9H11Cl2FN2O2S2/c1-13(2)18(15,16)14(17-9(10,11)12)8-6-4-3-5-7-8/h3-7H,1-2H3",WURGXGVFSMYFCG-UHFFFAOYSA-N,CN(C)[S](=O)(=O)N(SC(F)(Cl)Cl)C1=CC=CC=C1,-5.41,0.0,1,G1
C-1405,thiophanate-methyl,"InChI=1S/C12H14N4O4S2/c1-19-11(17)15-9(21)13-7-5-3-4-6-8(7)14-10(22)16-12(18)20-2/h3-6H,1-2H3,(H2,13,15,17,21)(H2,14,16,18,22)",QGHREAKMXXNCOA-UHFFFAOYSA-N,COC(=O)NC(=S)NC1=C(NC(=S)NC(=O)OC)C=CC=C1,-4.11,0.0,1,G1
C-1407,"triazoxide;  7-chloro-3-(1h-imidazol-1-yl)-1,2,4-benzotriazine 1-oxide",InChI=1S/C10H6ClN5O/c11-7-1-2-8-9(5-7)16(17)14-10(13-8)15-4-3-12-6-15/h1-6H,IQGKIPDJXCAMSM-UHFFFAOYSA-N,[O-][N+]1=NC(=NC2=C1C=C(Cl)C=C2)[N]3C=CN=C3,-3.63,0.11620000000000008,2,G3
C-1408,metominostrobin;  fenominostrobin;  ssf-126,"InChI=1S/C16H16N2O3/c1-17-16(19)15(18-20-2)13-10-6-7-11-14(13)21-12-8-4-3-5-9-12/h3-11H,1-2H3,(H,17,19)/b18-15-",HIIRDDUVRXCDBN-SDXDJHTJSA-N,CNC(=O)C(=N\OC)/C1=C(OC2=CC=CC=C2)C=CC=C1,-3.35,0.0,1,G1
C-1409,"sulfamoxole;  2-sulfa-4,5-dimethyloxazole","InChI=1S/C11H13N3O3S/c1-7-8(2)17-11(13-7)14-18(15,16)10-5-3-9(12)4-6-10/h3-6H,12H2,1-2H3,(H,13,14)",CYFLXLSBHQBMFT-UHFFFAOYSA-N,CC1=C(C)N=C(N[S](=O)(=O)C2=CC=C(N)C=C2)O1,-2.22,0.10820145819514423,3,G5
C-1410,"2,3,3',4,4'-pentachlorodiphenyl  ether",InChI=1S/C12H5Cl5O/c13-7-2-1-6(5-9(7)15)18-10-4-3-8(14)11(16)12(10)17/h1-5H,PKEGIXYNAGGYPN-UHFFFAOYSA-N,ClC1=CC=C(OC2=C(Cl)C(=C(Cl)C=C2)Cl)C=C1Cl,-7.67,0.0,1,G1
C-1411,itanoxone,"InChI=1S/C17H13ClO3/c1-11(17(20)21)10-16(19)13-8-6-12(7-9-13)14-4-2-3-5-15(14)18/h2-9H,1,10H2,(H,20,21)",HJWLWNLAIBFKDO-UHFFFAOYSA-N,OC(=O)C(=C)CC(=O)C1=CC=C(C=C1)C2=CC=CC=C2Cl,-3.2,0.0,1,G1
C-1412,"1-(n,n-diethylsuccinamoyloxymethyl)allopurinol","InChI=1S/C14H19N5O4/c1-3-18(4-2)11(20)5-6-12(21)23-9-19-13-10(7-17-19)14(22)16-8-15-13/h7-8H,3-6,9H2,1-2H3,(H,15,16,22)",ZEXLWXYSVRCCCY-UHFFFAOYSA-N,CCN(CC)C(=O)CCC(=O)OC[N]1N=CC2=C1N=CNC2=O,-0.99,0.0,1,G1
C-1413,"naproxen (n,n-dimethylcarbamoyl)methyl ester","InChI=1S/C18H21NO4/c1-12(18(21)23-11-17(20)19(2)3)13-5-6-15-10-16(22-4)8-7-14(15)9-13/h5-10,12H,11H2,1-4H3",IBUVVTIRLMVASK-UHFFFAOYSA-N,COC1=CC=C2C=C(C=CC2=C1)C(C)C(=O)OCC(=O)N(C)C,-4.9,0.0,1,G1
C-1414,cyproheptadine,"InChI=1S/C21H21N/c1-22-14-12-18(13-15-22)21-19-8-4-2-6-16(19)10-11-17-7-3-5-9-20(17)21/h2-11H,12-15H2,1H3",JJCFRYNCJDLXIK-UHFFFAOYSA-N,CN1CCC(CC1)=C2C3=C(C=CC=C3)C=CC4=C2C=CC=C4,-5.9,0.0,1,G1
C-1416,"tolylfluanid;  n-dichlorofluoromethylthio-n',n'-dimethyl-n-4-tolylsulfamide","InChI=1S/C10H13Cl2FN2O2S2/c1-8-4-6-9(7-5-8)15(18-10(11,12)13)19(16,17)14(2)3/h4-7H,1-3H3",HYVWIQDYBVKITD-UHFFFAOYSA-N,CN(C)[S](=O)(=O)N(SC(F)(Cl)Cl)C1=CC=C(C)C=C1,-5.59,0.0,1,G1
C-1417,"tetrachlorvinphos;  2-chloro-1-(2,4,5-trichlorophenyl)vinyl dimethyl phosphate","InChI=1S/C10H9Cl4O4P/c1-16-19(15,17-2)18-10(5-11)6-3-8(13)9(14)4-7(6)12/h3-5H,1-2H3/b10-5-",UBCKGWBNUIFUST-YHYXMXQVSA-N,CO[P](=O)(OC)OC(=C\Cl)/C1=C(Cl)C=C(Cl)C(=C1)Cl,-4.52,0.0,1,G1
C-1418,kresoxim-methyl,"InChI=1S/C18H19NO4/c1-13-8-4-7-11-16(13)23-12-14-9-5-6-10-15(14)17(19-22-3)18(20)21-2/h4-11H,12H2,1-3H3/b19-17-",ZOTBXTZVPHCKPN-ZPHPHTNESA-N,CO/N=C(C(=O)OC)/C1=C(COC2=C(C)C=CC=C2)C=CC=C1,-5.19,0.0,1,G1
C-1420,acetoxymethyl  nalidixate;  nalidixic acid acetoxymethyl ester,"InChI=1S/C15H16N2O5/c1-4-17-7-12(15(20)22-8-21-10(3)18)13(19)11-6-5-9(2)16-14(11)17/h5-7H,4,8H2,1-3H3",NWWLCGROZMKOTG-UHFFFAOYSA-N,CCN1C=C(C(=O)OCOC(C)=O)C(=O)C2=C1N=C(C)C=C2,-2.49,0.0,1,G1
C-1422,penicillin v,"InChI=1S/C16H18N2O5S/c1-16(2)12(15(21)22)18-13(20)11(14(18)24-16)17-10(19)8-23-9-6-4-3-5-7-9/h3-7,11-12,14H,8H2,1-2H3,(H,17,19)(H,21,22)",BPLBGHOLXOTWMN-UHFFFAOYSA-N,CC1(C)SC2C(NC(=O)COC3=CC=CC=C3)C(=O)N2C1C(O)=O,-3.15,0.0,1,G1
C-1423,pyributicarb,"InChI=1S/C18H22N2O2S/c1-18(2,3)13-8-6-9-14(12-13)22-17(23)20(4)15-10-7-11-16(19-15)21-5/h6-12H,1-5H3",VTRWMTJQBQJKQH-UHFFFAOYSA-N,COC1=CC=CC(=N1)N(C)C(=S)OC2=CC(=CC=C2)C(C)(C)C,-6.01,0.0,1,G1
C-1425,1-(benzoyloxymethyl)allopurinol,"InChI=1S/C13H10N4O3/c18-12-10-6-16-17(11(10)14-7-15-12)8-20-13(19)9-4-2-1-3-5-9/h1-7H,8H2,(H,14,15,18)",NWZNKSOQRRBBJE-UHFFFAOYSA-N,O=C1NC=NC2=C1C=N[N]2COC(=O)C3=CC=CC=C3,-4.05,0.0,1,G1
C-1427,"2,5-bis(butanoyloxymethyl)allopurinol","InChI=1S/C15H20N4O5/c1-3-5-12(20)23-9-18-8-16-14-11(15(18)22)7-19(17-14)10-24-13(21)6-4-2/h7-8H,3-6,9-10H2,1-2H3",PYKOSNOHCYDWPP-UHFFFAOYSA-N,CCCC(=O)OC[N]1C=C2C(=O)N(COC(=O)CCC)C=NC2=N1,-3.55,0.0,1,G1
C-1428,"2,2',3,4,4',6-hexachlorobiphenyl",InChI=1S/C12H4Cl6/c13-5-1-2-6(7(14)3-5)10-8(15)4-9(16)11(17)12(10)18/h1-4H,SPOPSCCFZQFGDL-UHFFFAOYSA-N,ClC1=CC(=C(C=C1)C2=C(Cl)C(=C(Cl)C=C2Cl)Cl)Cl,-7.47,0.0,1,G1
C-1429,propanoyloxymethyl  nalidixate;  nalidixic acid propanoyloxymethyl ester,"InChI=1S/C16H18N2O5/c1-4-13(19)22-9-23-16(21)12-8-18(5-2)15-11(14(12)20)7-6-10(3)17-15/h6-8H,4-5,9H2,1-3H3",YXRWLNMEWXCOIE-UHFFFAOYSA-N,CCN1C=C(C(=O)OCOC(=O)CC)C(=O)C2=C1N=C(C)C=C2,-2.83,0.0,1,G1
C-1430,fensulfothion-sulfone,"InChI=1S/C11H17O5PS2/c1-4-14-17(18,15-5-2)16-10-6-8-11(9-7-10)19(3,12)13/h6-9H,4-5H2,1-3H3",VTFZEBCYVXMEBB-UHFFFAOYSA-N,CCO[P](=S)(OCC)OC1=CC=C(C=C1)[S](C)(=O)=O,-3.58,0.47085,2,G3
C-1431,"naproxen (n,n-diethylcarbamoyl)methyl ester","InChI=1S/C20H25NO4/c1-5-21(6-2)19(22)13-25-20(23)14(3)15-7-8-17-12-18(24-4)10-9-16(17)11-15/h7-12,14H,5-6,13H2,1-4H3",WABNCOPYWOQKLV-UHFFFAOYSA-N,CCN(CC)C(=O)COC(=O)C(C)C1=CC2=CC=C(OC)C=C2C=C1,-4.46,0.0,1,G1
C-1432,naproxen ester ve;  naproxen [n-(2-hydroxyethyl)-n-methyl-carbamoyl]methyl ester,"InChI=1S/C19H23NO5/c1-13(19(23)25-12-18(22)20(2)8-9-21)14-4-5-16-11-17(24-3)7-6-15(16)10-14/h4-7,10-11,13,21H,8-9,12H2,1-3H3",UKUHRIHGVXNNCI-UHFFFAOYSA-N,COC1=CC=C2C=C(C=CC2=C1)C(C)C(=O)OCC(=O)N(C)CCO,-3.39,0.0,1,G1
C-1434,anilofos,"InChI=1S/C13H19ClNO3PS2/c1-10(2)15(12-7-5-11(14)6-8-12)13(16)9-21-19(20,17-3)18-4/h5-8,10H,9H2,1-4H3",NXQDBZGWYSEGFL-UHFFFAOYSA-N,CO[P](=S)(OC)SCC(=O)N(C(C)C)C1=CC=C(Cl)C=C1,-4.43,0.0,1,G1
C-1435,"2,5-bis(pivaloyloxymethyl)allopurinol","InChI=1S/C17H24N4O5/c1-16(2,3)14(23)25-9-20-8-18-12-11(13(20)22)7-21(19-12)10-26-15(24)17(4,5)6/h7-8H,9-10H2,1-6H3",IOFJWHCIWURTCZ-UHFFFAOYSA-N,CC(C)(C)C(=O)OC[N]1C=C2C(=O)N(COC(=O)C(C)(C)C)C=NC2=N1,-3.91,0.0,1,G1
C-1437,"2,3',4,4',5,5'-hexachlorodiphenyl  ether",InChI=1S/C12H4Cl6O/c13-6-3-8(15)11(4-7(6)14)19-5-1-9(16)12(18)10(17)2-5/h1-4H,DYSUSQZPGJXVAL-UHFFFAOYSA-N,ClC1=CC(=C(OC2=CC(=C(Cl)C(=C2)Cl)Cl)C=C1Cl)Cl,-8.72,0.0,1,G1
C-1438,oxadiazon,"InChI=1S/C15H18Cl2N2O3/c1-8(2)21-12-7-11(9(16)6-10(12)17)19-14(20)22-13(18-19)15(3,4)5/h6-8H,1-5H3",CHNUNORXWHYHNE-UHFFFAOYSA-N,CC(C)OC1=C(Cl)C=C(Cl)C(=C1)N2N=C(OC2=O)C(C)(C)C,-5.54,0.07500000000000018,2,G3
C-1439,quinalphos,"InChI=1S/C12H15N2O3PS/c1-3-15-18(19,16-4-2)17-12-9-13-10-7-5-6-8-11(10)14-12/h5-9H,3-4H2,1-2H3",JYQUHIFYBATCCY-UHFFFAOYSA-N,CCO[P](=S)(OCC)OC1=NC2=C(C=CC=C2)N=C1,-4.13,0.0,1,G1
C-1440,oxadiargyl,"InChI=1S/C15H14Cl2N2O3/c1-5-6-21-12-8-11(9(16)7-10(12)17)19-14(20)22-13(18-19)15(2,3)4/h1,7-8H,6H2,2-4H3",DVOODWOZJVJKQR-UHFFFAOYSA-N,CC(C)(C)C1=NN(C(=O)O1)C2=C(Cl)C=C(Cl)C(=C2)OCC#C,-5.96,0.0,1,G1