ID,Name,InChI,InChIKey,SMILES,Solubility,SD,Occurrences,Group
E-6,cyclohexane,InChI=1S/C6H12/c1-2-4-6-5-3-1/h1-6H2,XDTMQSROBMDMFD-UHFFFAOYSA-N,C1CCCCC1,-3.1,0.07386955970569382,4,G5
E-14,cyclopentene,"InChI=1S/C5H8/c1-2-4-5-3-1/h1-2H,3-5H2",LPIQUOYDBNQMRZ-UHFFFAOYSA-N,C1CC=CC1,-2.1,0.26457414059999995,2,G3
E-16,4-methyl-1-pentene,"InChI=1S/C6H12/c1-4-5-6(2)3/h4,6H,1,5H2,2-3H3",WSSSPWUEQFSQQG-UHFFFAOYSA-N,CC(C)CC=C,-3.24,0.07618083419999966,2,G3
E-30,benzene,InChI=1S/C6H6/c1-2-4-6-5-3-1/h1-6H,UHOVQNZJYSORNB-UHFFFAOYSA-N,c1ccccc1,-1.64,0.010714485949999908,2,G3
E-31,toluene,"InChI=1S/C7H8/c1-7-5-3-2-4-6-7/h2-6H,1H3",YXFVVABEGXRONW-UHFFFAOYSA-N,c1ccccc1C,-2.21,0.01976714594975658,3,G5
E-42,"1,4-diethylbenzene","InChI=1S/C10H14/c1-3-9-5-7-10(4-2)8-6-9/h5-8H,3-4H2,1-2H3",DSNHSQKRULAAEI-UHFFFAOYSA-N,c1cc(CC)ccc1CC,-3.75,0.07380710356018363,3,G5
E-63,acenaphthene,"InChI=1S/C12H10/c1-3-9-4-2-6-11-8-7-10(5-1)12(9)11/h1-6H,7-8H2",CWRYPZZKDGJXCA-UHFFFAOYSA-N,c1ccc2cccc3c2c1CC3,-4.63,0.05302901229276759,4,G5
E-90,bromochloromethane,InChI=1S/CH2BrCl/c2-1-3/h1H2,JPOXNPPZZKNXOV-UHFFFAOYSA-N,BrCCl,-0.89,1.5004179488,2,G2
E-91,chloroform,InChI=1S/CHCl3/c2-1(3)4/h1H,HEDRZPFGACZZDS-UHFFFAOYSA-N,ClC(Cl)Cl,-1.17,0.01629747699999995,2,G3
E-117,1-chlorobutane,"InChI=1S/C4H9Cl/c1-2-3-4-5/h2-4H2,1H3",VFWCMGCRMGJXDK-UHFFFAOYSA-N,CCCCCl,-2.03,0.44874222399391306,3,G5
E-126,2-chloro-2-methylbutane,"InChI=1S/C5H11Cl/c1-4-5(2,3)6/h4H2,1-3H3",CRNIHJHMEQZAAS-UHFFFAOYSA-N,CC(C)(Cl)CC,-2.51,0.5003865158499998,2,G2
E-128,1-chlorohexane,"InChI=1S/C6H13Cl/c1-2-3-4-5-6-7/h2-6H2,1H3",MLRVZFYXUZQSRU-UHFFFAOYSA-N,CCCCCCCl,-3.12,0.2267716112,2,G3
E-143,heptachlor_epoxide,"InChI=1S/C10H5Cl7O/c11-3-1-2(4-5(3)18-4)9(15)7(13)6(12)8(1,14)10(9,16)17/h1-5H",ZXFXBSWRVIQKOD-UHFFFAOYSA-N,ClC2C1OC1C3C2C4(Cl)C(=C(Cl)C3(Cl)C4(Cl)Cl)Cl,-6.29,0.1265789169736502,3,G5
E-153,"1,2-dichlorobenzene",InChI=1S/C6H4Cl2/c7-5-3-1-2-4-6(5)8/h1-4H,RFFLAFLAYFXFSW-UHFFFAOYSA-N,c1cccc(Cl)c1Cl,-3.05,0.080189757105451,8,G5
E-160,"1,2,3-trichlorobenzene",InChI=1S/C6H3Cl3/c7-4-2-1-3-5(8)6(4)9/h1-3H,RELMFMZEBKVZJC-UHFFFAOYSA-N,c1ccc(Cl)c(Cl)c1Cl,-4.0,0.11642398368459575,5,G5
E-225,2-methylpropanol,"InChI=1S/C4H10O/c1-4(2)3-5/h4-5H,3H2,1-2H3",ZXEKIIBDNHEJCQ-UHFFFAOYSA-N,OCC(C)C,0.04,0.045047596209722325,4,G5
E-226,1-pentanol,"InChI=1S/C5H12O/c1-2-3-4-5-6/h6H,2-5H2,1H3",AMQJEAYHLZJPGS-UHFFFAOYSA-N,CCCCCO,-0.6,0.011501510950000016,2,G3
E-236,4-methyl-2-pentanol,"InChI=1S/C6H14O/c1-5(2)4-6(3)7/h5-7H,4H2,1-3H3",WVYWICLMDOOCFB-UHFFFAOYSA-N,OC(CC(C)C)C,-0.8,0.06455167315000004,2,G3
E-268,3-phenylpropanol,"InChI=1S/C9H12O/c10-8-4-7-9-5-2-1-3-6-9/h1-3,5-6,10H,4,7-8H2",VAJVDSVGBWFCLW-UHFFFAOYSA-N,OCCCc(cccc1)c1,-1.38,0.06894047255000002,2,G3
E-270,1-nonanol,"InChI=1S/C9H20O/c1-2-3-4-5-6-7-8-9-10/h10H,2-9H2,1H3",ZWRUINPWMLAQRD-UHFFFAOYSA-N,OCCCCCCCCC,-3.01,0.4350013141468993,4,G5
E-278,p-cresol,"InChI=1S/C7H8O/c1-6-2-4-7(8)5-3-6/h2-5,8H,1H3",IWDCLRJOBJJRNH-UHFFFAOYSA-N,c1cc(C)ccc1O,-0.7,0.029721857380211637,4,G5
E-281,"2,4-dimethylphenol","InChI=1S/C8H10O/c1-6-3-4-8(9)7(2)5-6/h3-5,9H,1-2H3",KUFFULVDNCHOFZ-UHFFFAOYSA-N,c1cc(C)cc(C)c1O,-1.19,0.023517482899999997,2,G3
E-287,"naphthalene-1,5-diol","InChI=1S/C10H8O2/c11-9-5-1-3-7-8(9)4-2-6-10(7)12/h1-6,11-12H",BOKGTLAJQHTOKE-UHFFFAOYSA-N,Oc(c(c(c(O)cc1)cc2)c1)c2,-2.92,0.24996172919623255,3,G5
E-291,pentanal,"InChI=1S/C5H10O/c1-2-3-4-5-6/h5H,2-4H2,1H3",HGBOYTHUEUWSSQ-UHFFFAOYSA-N,CCCCC=O,-0.85,0.08673218802730875,3,G5
E-298,piperonal,"InChI=1S/C8H6O3/c9-4-6-1-2-7-8(3-6)11-5-10-7/h1-4H,5H2",SATCULPHIDQDRE-UHFFFAOYSA-N,O=Cc(ccc(OCO1)c12)c2,-1.63,0.2001740636,2,G3
E-299,2-butanone,"InChI=1S/C4H8O/c1-3-4(2)5/h3H2,1-2H3",ZWEHNKRNPOVVGH-UHFFFAOYSA-N,O=C(CC)C,0.52,0.0879709977841538,3,G5
E-300,2-pentanone,"InChI=1S/C5H10O/c1-3-4-5(2)6/h3-4H2,1-2H3",XNLICIUVMPYHGG-UHFFFAOYSA-N,O=C(CCC)C,-0.19,0.09298767691182742,3,G5
E-308,isophorone,"InChI=1S/C9H14O/c1-7-4-8(10)6-9(2,3)5-7/h4H,5-6H2,1-3H3",HJOVHMDZYOCNQW-UHFFFAOYSA-N,O=C(C=C(CC1(C)C)C)C1,-1.06,0.04041426765000006,2,G3
E-314,acetophenone,"InChI=1S/C8H8O/c1-7(9)8-5-3-2-4-6-8/h2-6H,1H3",KWOLFJPFCHCOCG-UHFFFAOYSA-N,O=C(c(cccc1)c1)C,-1.28,0.05958812417375806,4,G5
E-319,glutaric_acid,"InChI=1S/C5H8O4/c6-4(7)2-1-3-5(8)9/h1-3H2,(H,6,7)(H,8,9)",JFCQEDHGNNZCLN-UHFFFAOYSA-N,O=C(O)CCCC(=O)O,1.0,0.5490318149958004,3,G4
E-321,adipic_acid,"InChI=1S/C6H10O4/c7-5(8)3-1-2-4-6(9)10/h1-4H2,(H,7,8)(H,9,10)",WNLRTRBMVRJNCN-UHFFFAOYSA-N,O=C(O)CCCCC(=O)O,-0.82,0.11813923781216824,6,G5
E-322,caprylic_acid,"InChI=1S/C8H16O2/c1-2-3-4-5-6-7-8(9)10/h2-7H2,1H3,(H,9,10)",WWZKQHOCKIZLMA-UHFFFAOYSA-N,O=C(O)CCCCCCC,-2.3,0.026470589219483222,3,G5
E-334,isobutyric_acid,"InChI=1S/C4H8O2/c1-3(2)4(5)6/h3H,1-2H3,(H,5,6)",KQNPFQTWMSNSAP-UHFFFAOYSA-N,O=C(O)C(C)C,0.28,0.28299149515,2,G3
E-343,2-furoic_acid,"InChI=1S/C5H4O3/c6-5(7)4-2-1-3-8-4/h1-3H,(H,6,7)",SMNDYUVBFMFKNZ-UHFFFAOYSA-N,O=C(O)C(OC=C1)=C1,-0.48,0.4519132479289972,3,G5
E-349,propyl_acetate,"InChI=1S/C5H10O2/c1-3-4-7-5(2)6/h3-4H2,1-2H3",YKYONYBAUNKHLG-UHFFFAOYSA-N,O=C(OCCC)C,-0.72,0.013774465383833942,3,G5
E-352,isopropyl_acetate,"InChI=1S/C5H10O2/c1-4(2)7-5(3)6/h4H,1-3H3",JMMWKPVZQRWMSS-UHFFFAOYSA-N,O=C(OC(C)C)C,-0.55,0.034126098536534456,4,G5
E-354,methyl_valerate,"InChI=1S/C6H12O2/c1-3-4-5-6(7)8-2/h3-5H2,1-2H3",HNBDRPTVWVGKBR-UHFFFAOYSA-N,O=C(OC)CCCC,-1.36,0.08101726470175831,3,G5
E-367,methyl_acrylate,"InChI=1S/C4H6O2/c1-3-4(5)6-2/h3H,1H2,2H3",BAPJBEWLBFYGME-UHFFFAOYSA-N,O=C(OC)C=C,-0.22,0.03578399760713662,3,G5
E-368,ethyl_acrylate,"InChI=1S/C5H8O2/c1-3-5(6)7-4-2/h3H,1,4H2,2H3",JIGUQPWFLRLWPJ-UHFFFAOYSA-N,O=C(OCC)C=C,-0.74,0.05185858597704738,3,G5
E-369,methyl_methacrylate,"InChI=1S/C5H8O2/c1-4(2)5(6)7-3/h1H2,2-3H3",VVQNEPGJFQJSBK-UHFFFAOYSA-N,O=C(OC)C(=C)C,-0.8,0.04386589939640481,3,G5
E-373,diethyl_phthalate,"InChI=1S/C12H14O4/c1-3-15-11(13)9-7-5-6-8-10(9)12(14)16-4-2/h5-8H,3-4H2,1-2H3",FLKPEMZONWLCSK-UHFFFAOYSA-N,O=C(OCC)c(c(ccc1)C(=O)OCC)c1,-2.35,0.03121973140220598,4,G5
E-376,benzyl_butyl_phthalate,"InChI=1S/C19H20O4/c1-2-3-13-22-18(20)16-11-7-8-12-17(16)19(21)23-14-15-9-5-4-6-10-15/h4-12H,2-3,13-14H2,1H3",IRIAEXORFWYRCZ-UHFFFAOYSA-N,O=C(OCc(cccc1)c1)c(c(ccc2)C(=O)OCCCC)c2,-5.64,0.3004222189219627,4,G5
E-389,ethyl_vinyl_ether,"InChI=1S/C4H8O/c1-3-5-4-2/h3H,1,4H2,2H3",FJKIXWOMBXYWOQ-UHFFFAOYSA-N,CCOC=C,-0.85,0.057941412250000046,2,G3
E-414,betamethasone,"InChI=1S/C22H29FO5/c1-12-8-16-15-5-4-13-9-14(25)6-7-19(13,2)21(15,23)17(26)10-20(16,3)22(12,28)18(27)11-24/h6-7,9,12,15-17,24,26,28H,4-5,8,10-11H2,1-3H3",UREBDLICKHMUKA-UHFFFAOYSA-N,C1=CC(=O)C=C2CCC3C4CC(C)C(O)(C(=O)CO)C4(C)CC(O)C3(F)C12C,-3.77,0.105475115548645,6,G5
E-429,"2,4-dichlorophenol","InChI=1S/C6H4Cl2O/c7-4-1-2-6(9)5(8)3-4/h1-3,9H",HFZWRUODUSTPEG-UHFFFAOYSA-N,c1cc(Cl)cc(Cl)c1O,-1.55,0.01608333744547654,3,G5
E-431,pentachlorophenol,InChI=1S/C6HCl5O/c7-1-2(8)4(10)6(12)5(11)3(1)9/h12H,IZUPBVBPLAPZRR-UHFFFAOYSA-N,Oc(c(c(c(c1Cl)Cl)Cl)Cl)c1Cl,-4.28,0.21638443156156648,3,G5
E-433,chloroacetic_acid,"InChI=1S/C2H3ClO2/c3-1-2(4)5/h1H2,(H,4,5)",FOCAUTSVDIKZOP-UHFFFAOYSA-N,O=C(O)CCl,0.93,2.2880456077847997,4,G4
E-436,bis-(2-chloroethyl)_ether,InChI=1S/C4H8Cl2O/c5-1-3-7-4-2-6/h1-4H2,ZNSMNVMLTJELDZ-UHFFFAOYSA-N,ClCCOCCCl,-1.12,0.09229273036724801,4,G5
E-439,triethylamine,"InChI=1S/C6H15N/c1-4-7(5-2)6-3/h4-6H2,1-3H3",ZMANZCXQSJIPKH-UHFFFAOYSA-N,CCN(CC)CC,-0.14,0.33545367790011793,7,G5
E-449,2-methylaniline,"InChI=1S/C7H9N/c1-6-4-2-3-5-7(6)8/h2-5H,8H2,1H3",RNVCVTLRINQCPJ-UHFFFAOYSA-N,c1cccc(C)c1N,-0.85,0.5991080131987658,4,G4
E-456,diphenylamine,"InChI=1S/C12H11N/c1-3-7-11(8-4-1)13-12-9-5-2-6-10-12/h1-10,13H",DMBHHRLKUKUOEG-UHFFFAOYSA-N,c1ccccc1Nc2ccccc2,-3.51,0.4105285452371569,5,G5
E-486,cocaine,"InChI=1S/C17H21NO4/c1-18-12-8-9-13(18)15(17(20)21-2)14(10-12)22-16(19)11-6-4-3-5-7-11/h3-7,12-15H,8-10H2,1-2H3",ZPUCINDJVBIVPJ-UHFFFAOYSA-N,COC(=O)C1C(CC2CCC1N2C)OC(=O)c3ccccc3,-2.23,0.07586537784494025,3,G5
E-492,haloperidol,"InChI=1S/C21H23ClFNO2/c22-18-7-5-17(6-8-18)21(26)11-14-24(15-12-21)13-1-2-20(25)16-3-9-19(23)10-4-16/h3-10,26H,1-2,11-15H2",LNEPOXFFQSENCJ-UHFFFAOYSA-N,OC2(CCN(CCCC(=O)c1ccc(F)cc1)CC2)c3ccc(Cl)cc3,-4.43,0.575,2,G2
E-495,chloramphenicol,"InChI=1S/C11H12Cl2N2O5/c12-10(13)11(18)14-8(5-16)9(17)6-1-3-7(4-2-6)15(19)20/h1-4,8-10,16-17H,5H2,(H,14,18)",WIIZWVCIJKGZOK-UHFFFAOYSA-N,O=C(NC(C(O)c(ccc(N(=O)=O)c1)c1)CO)C(Cl)Cl,-2.11,0.4366793891276401,3,G5
E-496,strychnine,"InChI=1S/C21H22N2O2/c24-18-10-16-19-13-9-17-21(6-7-22(17)11-12(13)5-8-25-16)14-3-1-2-4-15(14)23(18)20(19)21/h1-5,13,16-17,19-20H,6-11H2",QMGVPVSNSZLJIA-UHFFFAOYSA-N,O=C(N(c(c(C1(C(N(C2)CC(C3C4C5OC6)=C6)C3)C2)ccc7)c7)C14)C5,-3.32,0.4407821331325588,3,G5
E-500,aminopyrine,"InChI=1S/C13H17N3O/c1-10-12(14(2)3)13(17)16(15(10)4)11-8-6-5-7-9-11/h5-9H,1-4H3",RMMXTBMQSGEXHJ-UHFFFAOYSA-N,c1ccccc1N2C(=O)C(N(C)C)=C(C)N2C,-0.63,0.1297005097222915,3,G5
E-505,promethazine,"InChI=1S/C17H20N2S/c1-13(18(2)3)12-19-14-8-4-6-10-16(14)20-17-11-7-5-9-15(17)19/h4-11,13H,12H2,1-3H3",PWWVAXIEGOYWEE-UHFFFAOYSA-N,c1ccc2Sc3ccccc3N(CC(C)N(C)C)c2c1,-4.26,0.14884742374510715,3,G5
E-511,sulfathiozole,"InChI=1S/C9H9N3O2S2/c10-7-1-3-8(4-2-7)16(13,14)12-9-11-5-6-15-9/h1-6H,10H2,(H,11,12)",JNMRHUJNCSQMMB-UHFFFAOYSA-N,c1cc(N)ccc1S(=O)(=O)Nc2nccs2,-2.43,0.3530778950883219,5,G5
E-517,phthalimide,"InChI=1S/C8H5NO2/c10-7-5-3-1-2-4-6(5)8(11)9-7/h1-4H,(H,9,10,11)",XKJCHHZQLQNZHY-UHFFFAOYSA-N,O=C(NC(=O)c1cccc2)c12,-2.61,0.4738967792631385,3,G5
E-530,ephedrine,"InChI=1S/C10H15NO/c1-8(11-2)10(12)9-6-4-3-5-7-9/h3-8,10-12H,1-2H3",KWGRBVOPPLSCSI-UHFFFAOYSA-N,OC(c(cccc1)c1)C(NC)C,-0.42,0.04921607686744466,3,G5
E-551,ibuprofen,"InChI=1S/C13H18O2/c1-9(2)8-11-4-6-12(7-5-11)10(3)13(14)15/h4-7,9-10H,8H2,1-3H3,(H,14,15)",HEFNNWSXXWATRW-UHFFFAOYSA-N,O=C(O)C(c(ccc(c1)CC(C)C)c1)C,-3.99,0.3174564480339699,4,G5
E-565,azobenzene,InChI=1S/C12H10N2/c1-3-7-11(8-4-1)13-14-12-9-5-2-6-10-12/h1-10H,DMLAVOWQYNRWNQ-UHFFFAOYSA-N,N(=Nc(cccc1)c1)c(cccc2)c2,-4.45,0.2550000000000001,2,G3
E-572,pyrrolidone,"InChI=1S/C4H7NO/c6-4-2-1-3-5-4/h1-3H2,(H,5,6)",HNJBEVLQSNELDL-UHFFFAOYSA-N,O=C(NCC1)C1,1.07,0.99998008955,2,G2
E-577,phthalonitrile,InChI=1S/C8H4N2/c9-5-7-3-1-2-4-8(7)6-10/h1-4H,XQZYPMVTSDWCCE-UHFFFAOYSA-N,N#Cc(c(C#N)ccc1)c1,-2.38,0.06760672289850639,3,G5
E-580,2-aminobenzoic_acid,"InChI=1S/C7H7NO2/c8-6-4-2-1-3-5(6)7(9)10/h1-4H,8H2,(H,9,10)",RWZYAGGXGHYGMB-UHFFFAOYSA-N,c1cccc(N)c1C(=O)O,-1.52,0.04536502526014617,3,G5
E-583,O-butyl_carbamate,"InChI=1S/C5H11NO2/c1-2-3-4-8-5(6)7/h2-4H2,1H3,(H2,6,7)",SKKTUOZKZKCGTB-UHFFFAOYSA-N,O=C(OCCCC)N,-0.66,0.010228007550000029,2,G3
E-587,urea,"InChI=1S/CH4N2O/c2-1(3)4/h(H4,2,3,4)",XSQUKJJJFZCRTK-UHFFFAOYSA-N,NC(=O)N,0.96,0.028314093400000018,2,G3
E-601,codeine,"InChI=1S/C18H21NO3/c1-19-8-7-18-11-4-5-13(20)17(18)22-16-14(21-2)6-3-10(15(16)18)9-12(11)19/h3-6,11-13,17,20H,7-9H2,1-2H3",OROGSEYTTFOCAN-UHFFFAOYSA-N,COc1ccc2CC5C3C=CC(O)C4Oc1c2C34CCN5C,-1.52,0.43150898020782824,3,G5
E-603,nitrobenzene,InChI=1S/C6H5NO2/c8-7(9)6-4-2-1-3-5-6/h1-5H,LQNUZADURLCDLV-UHFFFAOYSA-N,O=N(=O)c(cccc1)c1,-1.8,0.021794122510099646,4,G5
E-604,2-nitrotoluene,"InChI=1S/C7H7NO2/c1-6-4-2-3-5-7(6)8(9)10/h2-5H,1H3",PLAZTCDQAHEYBI-UHFFFAOYSA-N,O=N(=O)c(c(ccc1)C)c1,-2.33,0.0836853117424825,3,G5
E-623,simazine,"InChI=1S/C7H12ClN5/c1-3-9-6-11-5(8)12-7(13-6)10-4-2/h3-4H2,1-2H3,(H2,9,10,11,12,13)",ODCWYMIRDDJXKW-UHFFFAOYSA-N,n(c(nc(n1)NCC)NCC)c1Cl,-4.55,0.20773373759489586,3,G5
E-643,ethylenethiourea,"InChI=1S/C3H6N2S/c6-3-4-1-2-5-3/h1-2H2,(H2,4,5,6)",PDQAZBWRQCGBEV-UHFFFAOYSA-N,N(C(=S)NC1)C1,-0.71,0.0692305882,2,G3
E-644,"1,3-diethylthiourea","InChI=1S/C5H12N2S/c1-3-6-5(8)7-4-2/h3-4H2,1-2H3,(H2,6,7,8)",FLVIGYVXZHLUHP-UHFFFAOYSA-N,CCNC(=S)NCC,-1.46,0.48095636184999996,2,G3
E-664,deoxycholic_acid,"InChI=1S/C24H40O4/c1-14(4-9-22(27)28)18-7-8-19-17-6-5-15-12-16(25)10-11-23(15,2)20(17)13-21(26)24(18,19)3/h14-21,25-26H,4-13H2,1-3H3,(H,27,28)",KXGVEGMKQFWNSR-UHFFFAOYSA-N,O=C(O)CCC(C(C(C(C(C(C(C(C1)CC(O)C2)(C2)C)C3)C1)C4)(C3O)C)C4)C,-3.95,0.40342974054419384,3,G5
E-719,thioanisole,"InChI=1S/C7H8S/c1-8-7-5-3-2-4-6-7/h2-6H,1H3",HNKJADCVZUBCPG-UHFFFAOYSA-N,S(c(cccc1)c1)C,-2.39,1.3520747843999998,2,G2
E-736,Chloroacetamide,"InChI=1S/C2H4ClNO/c3-1-2(4)5/h1H2,(H2,4,5)",VXIVSQZSERGHQP-UHFFFAOYSA-N,O=C(N)CCl,-0.02,0.12226017616092083,3,G5
E-791,Salicylaldehyde,"InChI=1S/C7H6O2/c8-5-6-3-1-2-4-7(6)9/h1-5,9H",SMQUZDBALVYZAC-UHFFFAOYSA-N,O=Cc(c(O)ccc1)c1,-0.86,0.26830069215,2,G3
E-793,Salicylamide,"InChI=1S/C7H7NO2/c8-7(10)5-3-1-2-4-6(5)9/h1-4,9H,(H2,8,10)",SKZKKFZAGNVIMN-UHFFFAOYSA-N,O=C(N)c(c(O)ccc1)c1,-1.76,0.061703106350881096,5,G5
E-795,Sulfaguanidine,"InChI=1S/C7H10N4O2S/c8-5-1-3-6(4-2-5)14(12,13)11-7(9)10/h1-4H,8H2,(H4,9,10,11)",BRBKOPJOKNSWSG-UHFFFAOYSA-N,c1cc(N)ccc1S(=O)(=O)NC(=N)N,-1.99,0.0050000000000000044,2,G3
E-809,m-Aminoacetophenone,"InChI=1S/C8H9NO/c1-6(10)7-3-2-4-8(9)5-7/h2-5H,9H2,1H3",CKQHAYFOPRIUOM-UHFFFAOYSA-N,c1ccc(N)cc1C(=O)C,-1.28,0.19157167790000001,2,G3
E-811,"2,3-Xylenol","InChI=1S/C8H10O/c1-6-4-3-5-8(9)7(6)2/h3-5,9H,1-2H3",QWBBPBRQALCEIZ-UHFFFAOYSA-N,Oc(c(c(cc1)C)C)c1,-1.43,0.031280679449999904,2,G3
E-812,"2,5-Xylenol","InChI=1S/C8H10O/c1-6-3-4-7(2)8(9)5-6/h3-5,9H,1-2H3",NKTOLZVEWDHZMU-UHFFFAOYSA-N,Oc(c(ccc1C)C)c1,-1.54,0.02226339459999993,2,G3
E-842,Levodopa,"InChI=1S/C9H11NO4/c10-6(9(13)14)3-5-1-2-7(11)8(12)4-5/h1-2,4,6,11-12H,3,10H2,(H,13,14)",WTDRDQBEARUVNC-UHFFFAOYSA-N,O=C(O)C(N)Cc(ccc(O)c1O)c1,-1.6,0.14445299120013638,3,G5
E-856,Meconin,"InChI=1S/C10H10O4/c1-12-7-4-3-6-5-14-10(11)8(6)9(7)13-2/h3-4H,5H2,1-2H3",ORFFGRQMMWVHIB-UHFFFAOYSA-N,COc1ccc2COC(=O)c2c1OC,-1.89,0.0050000000000000044,2,G3
E-880,Sulfapyridine,"InChI=1S/C11H11N3O2S/c12-9-4-6-10(7-5-9)17(15,16)14-11-3-1-2-8-13-11/h1-8H,12H2,(H,13,14)",GECHUMIMRBOMGK-UHFFFAOYSA-N,O=S(=O)(Nc(nccc1)c1)c(ccc(N)c2)c2,-2.7,0.6946941773183364,3,G4
E-885,Sulfisoxazole,"InChI=1S/C11H13N3O3S/c1-7-8(2)13-17-11(7)14-18(15,16)10-5-3-9(12)4-6-10/h3-6,14H,12H2,1-2H3",NHUHCSRWZMLRLA-UHFFFAOYSA-N,O=S(=O)(Nc(onc1C)c1C)c(ccc(N)c2)c2,-2.91,0.6023841520713065,3,G4
E-896,Methyl_Caprate,"InChI=1S/C11H22O2/c1-3-4-5-6-7-8-9-10-11(12)13-2/h3-10H2,1-2H3",YRHYCMZPEVDGFQ-UHFFFAOYSA-N,O=C(OC)CCCCCCCCC,-4.63,0.19759228858646155,3,G5
E-899,Triclosan,"InChI=1S/C12H7Cl3O2/c13-7-1-3-11(9(15)5-7)17-12-4-2-8(14)6-10(12)16/h1-6,16H",XEFQLINVKFYRCS-UHFFFAOYSA-N,O(c(c(O)cc(c1)Cl)c1)c(c(cc(c2)Cl)Cl)c2,-4.46,0.10132554843095098,4,G5
E-911,Tributylamine,"InChI=1S/C12H27N/c1-4-7-10-13(11-8-5-2)12-9-6-3/h4-12H2,1-3H3",IMFACGCPASFAPR-UHFFFAOYSA-N,N(CCCC)(CCCC)CCCC,-3.12,0.2827457934837497,3,G5
E-915,Carbanilide,"InChI=1S/C13H12N2O/c16-13(14-11-7-3-1-4-8-11)15-12-9-5-2-6-10-12/h1-10H,(H2,14,15,16)",GWEHVDNNLFDJLR-UHFFFAOYSA-N,O=C(Nc(cccc1)c1)Nc(cccc2)c2,-3.15,0.8851558053999999,2,G2
E-922,Salbutamol,"InChI=1S/C13H21NO3/c1-13(2,3)14-7-12(17)9-4-5-11(16)10(6-9)8-15/h4-6,12,14-17H,7-8H2,1-3H3",NDAUXUAQIAJITI-UHFFFAOYSA-N,c1c(CO)c(O)ccc1C(O)CNC(C)(C)C,-1.22,0.385,2,G3
E-923,Methyl_Laurate,"InChI=1S/C13H26O2/c1-3-4-5-6-7-8-9-10-11-12-13(14)15-2/h3-12H2,1-2H3",UQDUPQYQJKYHQI-UHFFFAOYSA-N,O=C(OC)CCCCCCCCCCC,-4.69,0.1243421450000004,2,G3
E-939,Coumaphos,"InChI=1S/C14H16ClO5PS/c1-4-17-21(22,18-5-2)20-10-6-7-11-9(3)13(15)14(16)19-12(11)8-10/h6-8H,4-5H2,1-3H3",BXNANOICGRISHX-UHFFFAOYSA-N,S=P(OCC)(OCC)Oc1ccc2C(C)=C(Cl)C(=O)Oc2c1,-5.38,0.43000000000000016,2,G3
E-973,Hyoscyamine,"InChI=1S/C17H23NO3/c1-18-13-7-8-14(18)10-15(9-13)21-17(20)16(11-19)12-5-3-2-4-6-12/h2-6,13-16,19H,7-11H2,1H3",RKUNBYITZUJHSG-UHFFFAOYSA-N,O=C(OC(CC(N(C1C2)C)C2)C1)C(c(cccc3)c3)CO,-1.91,0.4028509512076258,3,G5
E-984,Cinchonidine,"InChI=1S/C19H22N2O/c1-2-13-12-21-10-8-14(13)11-18(21)19(22)16-7-9-20-17-6-4-3-5-15(16)17/h2-7,9,13-14,18-19,22H,1,8,10-12H2",KMPWYEUPVWOPIM-UHFFFAOYSA-N,OC(c(c(c(nc1)ccc2)c2)c1)C(N(CCC3C4C=C)C4)C3,-3.07,0.3652700675147392,3,G5
E-986,Amitraz,"InChI=1S/C19H23N3/c1-14-6-8-18(16(3)10-14)20-12-22(5)13-21-19-9-7-15(2)11-17(19)4/h6-13H,1-5H3",QXAITBQSYVNQDR-UHFFFAOYSA-N,CN(C=Nc1ccc(C)cc1C)C=Nc2ccc(C)cc2C,-5.47,0.6499999999999999,2,G2
E-1026,ethylbenzene,"InChI=1S/C8H10/c1-2-8-6-4-3-5-7-8/h3-7H,2H2,1H3",YNQLUTRBYVCPMQ-UHFFFAOYSA-N,c1ccccc1CC,-2.77,0.03008614204067769,3,G5
E-1042,tetrachloromethane,"InChI=1S/CCl4/c2-1(3,4)5",VZGDMQKNWNREIO-UHFFFAOYSA-N,ClC(Cl)(Cl)Cl,-2.31,0.04218067157196153,4,G5
E-1085,1-decanol,"InChI=1S/C10H22O/c1-2-3-4-5-6-7-8-9-10-11/h11H,2-10H2,1H3",MWKFXSUHUHTGQN-UHFFFAOYSA-N,OCCCCCCCCCC,-3.63,0.40676794554592094,4,G5
E-1087,"1,2-benzenediol","InChI=1S/C6H6O2/c7-5-3-1-2-4-6(5)8/h1-4,7-8H",YCIMNLLNPGFGHC-UHFFFAOYSA-N,Oc(c(O)ccc1)c1,0.62,0.05228909810000004,2,G3
E-1099,caprinic_acid,"InChI=1S/C10H20O2/c1-2-3-4-5-6-7-8-9-10(11)12/h2-9H2,1H3,(H,11,12)",GHVNFZFCNZKVNT-UHFFFAOYSA-N,CCCCCCCCCC(=O)O,-3.44,0.18148322931200508,3,G5
E-1113,diethyl_ether,"InChI=1S/C4H10O/c1-3-5-4-2/h3-4H2,1-2H3",RTZKZFJDLAIYFH-UHFFFAOYSA-N,CCOCC,-0.09,0.016145854249999998,2,G3
E-1116,anisole,"InChI=1S/C7H8O/c1-8-7-5-3-2-4-6-7/h2-6H,1H3",RDOXTESZEPMUJZ-UHFFFAOYSA-N,c1ccccc1OC,-1.85,0.09246691008495828,3,G5
E-1122,fludrocortisone,"InChI=1S/C21H29FO5/c1-18-7-5-13(24)9-12(18)3-4-15-14-6-8-20(27,17(26)11-23)19(14,2)10-16(25)21(15,18)22/h9,14-16,23,25,27H,3-8,10-11H2,1-2H3",AAXVEMMRQDVLJB-UHFFFAOYSA-N,CC12CC(O)C3(F)C(CCC4=CC(=O)CCC43C)C2CCC1(O)C(=O)CO,-3.43,0.9415235879502258,3,G4
E-1123,salicylic_acid,"InChI=1S/C7H6O3/c8-6-4-2-1-3-5(6)7(9)10/h1-4,8H,(H,9,10)",YGSDEFSMJLZEOE-UHFFFAOYSA-N,O=C(O)c(c(O)ccc1)c1,-1.82,0.036971503677817666,4,G5
E-1129,hexylamine,"InChI=1S/C6H15N/c1-2-3-4-5-6-7/h2-7H2,1H3",BMVXCPBXGZKUPN-UHFFFAOYSA-N,CCCCCCN,-1.1,0.44261045162878243,4,G5
E-1130,n-octylamine,"InChI=1S/C8H19N/c1-2-3-4-5-6-7-8-9/h2-9H2,1H3",IOQPZZOEVPZRBK-UHFFFAOYSA-N,CCCCCCCCN,-2.75,0.08561878480964712,3,G5
E-1132,"N,N-dimethylaniline","InChI=1S/C8H11N/c1-9(2)8-6-4-3-5-7-8/h3-7H,1-2H3",JLTDJTHDQAWBAV-UHFFFAOYSA-N,c1ccccc1N(C)C,-1.92,0.042130226800000115,2,G3
E-1136,nicotinic_acid,"InChI=1S/C6H5NO2/c8-6(9)5-2-1-3-7-4-5/h1-4H,(H,8,9)",PVNIIMVLHYAWGP-UHFFFAOYSA-N,O=C(O)c(cccn1)c1,-0.84,0.47612458820380954,3,G5
E-1151,sulfamethiazole,"InChI=1S/C9H10N4O2S2/c1-6-11-12-9(16-6)13-17(14,15)8-4-2-7(10)3-5-8/h2-5H,10H2,1H3,(H,12,13)",VACCAVUAMIDAGB-UHFFFAOYSA-N,c1cc(N)ccc1S(=O)(=O)Nc2nnc(C)s2,-2.41,1.0256813453613272,3,G4
E-1154,sulfamethoxazole,"InChI=1S/C10H11N3O3S/c1-7-6-10(12-16-7)13-17(14,15)9-4-2-8(11)3-5-9/h2-6H,11H2,1H3,(H,12,13)",JLKIGFTWXXRPMT-UHFFFAOYSA-N,Cc1cc(NS(=O)(=O)c2ccc(N)cc2)no1,-2.62,0.24904261125803812,3,G5
E-1171,4-nitrobenzoic_acid,"InChI=1S/C7H5NO4/c9-7(10)5-1-3-6(4-2-5)8(11)12/h1-4H,(H,9,10)",OTLNPYWUJOZPPA-UHFFFAOYSA-N,O=C(O)c(ccc(N(=O)=O)c1)c1,-2.8,0.12099726337987839,5,G5
E-1172,2-nitroaniline,"InChI=1S/C6H6N2O2/c7-5-3-1-2-4-6(5)8(9)10/h1-4H,7H2",DPJCXCZTLWNFOH-UHFFFAOYSA-N,O=N(=O)c(c(N)ccc1)c1,-1.96,1.2360319648475886,4,G4
E-1173,3-chloroaniline,"InChI=1S/C6H6ClN/c7-5-2-1-3-6(8)4-5/h1-4H,8H2",PNPCRKVUWYDDST-UHFFFAOYSA-N,Clc(cccc1N)c1,-1.37,0.02513951875000009,2,G3
E-1183,fenitrothion,"InChI=1S/C9H12NO5PS/c1-7-6-8(4-5-9(7)10(11)12)15-16(17,13-2)14-3/h4-6H,1-3H3",ZNOLGFHPUIJIMJ-UHFFFAOYSA-N,COP(=S)(OC)Oc1ccc(N(=O)=O)c(C)c1,-4.04,0.17947392258734657,3,G5
E-1222,Phenetole,"InChI=1S/C8H10O/c1-2-9-8-6-4-3-5-7-8/h3-7H,2H2,1H3",DLRJIFUOBPOJNS-UHFFFAOYSA-N,c1ccccc1OCC,-2.33,0.5730680389,2,G2
E-1245,4-Hexylresorcinol,"InChI=1S/C12H18O2/c1-2-3-4-5-6-10-7-8-11(13)9-12(10)14/h7-9,13-14H,2-6H2,1H3",WFJIVOKAWHGMBH-UHFFFAOYSA-N,Oc(c(ccc1O)CCCCCC)c1,-2.59,0.07365166789999988,2,G3
E-1273,benzocaine,"InChI=1S/C9H11NO2/c1-2-12-9(11)7-3-5-8(10)6-4-7/h3-6H,2,10H2,1H3",BLFLLBZGZJTVJG-UHFFFAOYSA-N,O=C(OCC)c(ccc(N)c1)c1,-2.32,0.17938294233287627,5,G5
E-1274,acetylsalicylic_acid,"InChI=1S/C9H8O4/c1-6(10)13-8-5-3-2-4-7(8)9(11)12/h2-5H,1H3,(H,11,12)",BSYNRYMUTXBXSQ-UHFFFAOYSA-N,O=C(Oc(c(ccc1)C(=O)O)c1)C,-1.72,0.06855793976488699,4,G5
E-1275,antipyrine,"InChI=1S/C11H12N2O/c1-9-8-11(14)13(12(9)2)10-6-4-3-5-7-10/h3-8H,1-2H3",VEQOALNAAJBPNY-UHFFFAOYSA-N,c1ccccc1N2C(=O)C=C(C)N2C,-0.56,0.7158681355529104,4,G4
E-1288,chlorpyriphos,"InChI=1S/C9H11Cl3NO3PS/c1-3-14-17(18,15-4-2)16-9-7(11)5-6(10)8(12)13-9/h5H,3-4H2,1-2H3",SBPBAQFWLVIOKP-UHFFFAOYSA-N,CCOP(=S)(OCC)Oc1nc(Cl)c(Cl)cc1Cl,-5.49,0.11224972160321807,3,G5