ID,Name,InChI,InChIKey,SMILES,Solubility,SD,Occurrences,Group
B-2441,"2,5-piperazinedione, 3-(1-methylethyl)-","InChI=1S/C7H12N2O2/c1-4(2)6-7(11)8-3-5(10)9-6/h4,6H,3H2,1-2H3,(H,8,11)(H,9,10)",IULFBTHVPRNQCG-UHFFFAOYSA-N,CC(C)C1NC(=O)CNC1=O,-0.8926,0.0,1,G1
B-2443,"3-heptanol, 4-methyl- (van8ci9ci)","InChI=1S/C8H18O/c1-4-6-7(3)8(9)5-2/h7-9H,4-6H2,1-3H3",BKQICAFAUMRYLZ-UHFFFAOYSA-N,CCCC(C)C(O)CC,-1.9636,0.0,1,G1
B-2444,"1,6-dioxaspiro[4,4]nonane, 2,2,7,7-tetramethyl-","InChI=1S/C11H20O2/c1-9(2)5-7-11(12-9)8-6-10(3,4)13-11/h5-8H2,1-4H3",NJYRFKSWBDHCQL-UHFFFAOYSA-N,CC1(C)CCC2(CCC(C)(C)O2)O1,-1.9644,0.0,1,G1
B-2445,"phenol, 2,2'-sulfonylbis-","InChI=1S/C12H10O4S/c13-9-5-1-3-7-11(9)17(15,16)12-8-4-2-6-10(12)14/h1-8,13-14H",QUWAJPZDCZDTJS-UHFFFAOYSA-N,Oc1ccccc1[S](=O)(=O)c2ccccc2O,-3.3192,0.0,1,G1
B-2446,"dl-phenylalanine, n-(2-cyanoethyl)-","InChI=1S/C12H14N2O2/c13-7-4-8-14-11(12(15)16)9-10-5-2-1-3-6-10/h1-3,5-6,11,14H,4,8-9H2,(H,15,16)/t11-/m0/s1",RDEPSYXOVXRWGR-NSHDSACASA-N,[O-]C(=O)[C@H](Cc1ccccc1)[NH2+]CCC#N,-1.4939,0.0,1,G1
B-2447,"1,1,2,3,3-pentachloropropane",InChI=1S/C3H3Cl5/c4-1(2(5)6)3(7)8/h1-3H,PANVCEBTPSTUEL-UHFFFAOYSA-N,ClC(Cl)C(Cl)C(Cl)Cl,-2.7223,0.0,1,G1
B-2448,"l-tyrosine, 3,5-dichloro-","InChI=1S/C9H9Cl2NO3/c10-5-1-4(2-6(11)8(5)13)3-7(12)9(14)15/h1-2,7,13H,3,12H2,(H,14,15)",MPHURJQUHZHALJ-UHFFFAOYSA-N,NC(Cc1cc(Cl)c(O)c(Cl)c1)C(O)=O,-1.7546,0.0,1,G1
B-2449,"glutaric acid, 3-hydroxy-3-(phenylcarbamoyl)-","InChI=1S/C12H13NO6/c14-9(15)6-12(19,7-10(16)17)11(18)13-8-4-2-1-3-5-8/h1-5,19H,6-7H2,(H,13,18)(H,14,15)(H,16,17)",XIQLELWZTXRHIC-UHFFFAOYSA-N,OC(=O)CC(O)(CC(O)=O)C(=O)Nc1ccccc1,-0.4874,0.0,1,G1
B-2450,"benzoic acid, 4-hydroxy-3-iodo-, methyl ester","InChI=1S/C8H7IO3/c1-12-8(11)5-2-3-7(10)6(9)4-5/h2-4,10H,1H3",PXNOLLHARLSLHY-UHFFFAOYSA-N,COC(=O)c1ccc(O)c(I)c1,-3.3138,0.0,1,G1
B-2451,"benzoic acid, 4-hydroxy-3-iodo-, ethyl ester","InChI=1S/C9H9IO3/c1-2-13-9(12)6-3-4-8(11)7(10)5-6/h3-5,11H,2H2,1H3",HOAXKZYYZXASLJ-UHFFFAOYSA-N,CCOC(=O)c1ccc(O)c(I)c1,-3.4924,0.0,1,G1
B-2452,"benzoic acid, 4-hydroxy-3-iodo-, propyl ester","InChI=1S/C10H11IO3/c1-2-5-14-10(13)7-3-4-9(12)8(11)6-7/h3-4,6,12H,2,5H2,1H3",GEFATVANQYOXLC-UHFFFAOYSA-N,CCCOC(=O)c1ccc(O)c(I)c1,-3.6865,0.0,1,G1
B-2453,"benzoic acid, 4-hydroxy-3-iodo-, butyl ester","InChI=1S/C11H13IO3/c1-2-3-6-15-11(14)8-4-5-10(13)9(12)7-8/h4-5,7,13H,2-3,6H2,1H3",LDGUZTFKHIQDJC-UHFFFAOYSA-N,CCCCOC(=O)c1ccc(O)c(I)c1,-3.9033,0.0,1,G1
B-2454,"propanoic acid, 2-(2,4-dichlorophenoxy)-, (r)-","InChI=1S/C9H8Cl2O3/c1-5(9(12)13)14-8-3-2-6(10)4-7(8)11/h2-5H,1H3,(H,12,13)/t5-/m1/s1",MZHCENGPTKEIGP-RXMQYKEDSA-N,C[C@@H](Oc1ccc(Cl)cc1Cl)C(O)=O,-2.6003,0.0,1,G1
B-2455,tranid,"InChI=1S/C10H12ClN3O2/c1-13-10(15)16-14-9-7-3-5(8(9)11)2-6(7)4-12/h5-8H,2-3H2,1H3,(H,13,15)/b14-9-/t5?,6-,7?,8+/m1/s1",QCQPGRMMDFIQMB-WDAIPKEHSA-N,CNC(=O)O\N=C1/[C@@H](Cl)C2C[C@H](C#N)C1C2,-2.0822,0.0,1,G1
B-2459,"1,3-benzodioxole-5-methanol, 6-nitro-","InChI=1S/C8H7NO5/c10-3-5-6(9(11)12)1-2-7-8(5)14-4-13-7/h1-2,10H,3-4H2",LJXBRPHBDWIHPR-UHFFFAOYSA-N,OCc1c2OCOc2ccc1[N+]([O-])=O,-3.0643,0.0,1,G1
B-2461,noxythiolin,"InChI=1S/C3H8N2OS/c1-4-7-3-5-2-6/h4-6H,2H2,1H3",BBJPKBLYPSYKMT-UHFFFAOYSA-N,CN[S]#CNCO,-0.0798,0.0,1,G1
B-2462,"propanenitrile, 2-(acetyloxy)-","InChI=1S/C5H7NO2/c1-4(3-6)8-5(2)7/h4H,1-2H3",BMJFWKRWVAQUPA-UHFFFAOYSA-N,CC(OC(C)=O)C#N,0.2475,0.0,1,G1
B-2463,cis-platin,InChI=1S/2ClH.2H3N.Pt/h2*1H;2*1H3;/q;;;;+2/p-2,LXZZYRPGZAFOLE-UHFFFAOYSA-L,N.N.[Cl-].[Cl-].[Pt++],-2.0741,0.0,1,G1
B-2465,"quinoxaline-1,4-dihydro-2,3-dione","InChI=1S/C8H6N2O2/c11-7-8(12)10-6-4-2-1-3-5(6)9-7/h1-4H,(H,9,11)(H,10,12)",ABJFBJGGLJVMAQ-UHFFFAOYSA-N,O=C1Nc2ccccc2NC1=O,-2.812,0.0,1,G1
B-2468,"acetic acid, 2,2'-tetrathiobis-","InChI=1S/C4H6O4S4/c5-3(6)1-9-11-12-10-2-4(7)8/h1-2H2,(H,5,6)(H,7,8)",OMDZYSJJXJMDDF-UHFFFAOYSA-N,OC(=O)CSSSSCC(O)=O,-1.452,0.0,1,G1
B-2469,"ethanol, 2-butoxy-, carbamate","InChI=1S/C7H15NO3/c1-2-3-4-10-5-6-11-7(8)9/h2-6H2,1H3,(H2,8,9)",QHHQZURUTXQADT-UHFFFAOYSA-N,CCCCOCCOC(N)=O,-0.5084,0.0,1,G1
B-2474,"phosphonic acid, hexyl-, diethyl ester","InChI=1S/C10H23O3P/c1-4-7-8-9-10-14(11,12-5-2)13-6-3/h4-10H2,1-3H3",VVUJWLDQIIFQHI-UHFFFAOYSA-N,CCCCCC[P](=O)(OCC)OCC,-2.5687,0.0,1,G1
B-2475,"2-naphthol, 3-(2-imidazolin-2-yl)-","InChI=1S/C13H12N2O/c16-12-8-10-4-2-1-3-9(10)7-11(12)13-14-5-6-15-13/h1-4,7-8,16H,5-6H2,(H,14,15)",FLXNNWWFGVHTDN-UHFFFAOYSA-N,Oc1cc2ccccc2cc1C3=NCCN3,-3.3015,0.0,1,G1
B-2476,"phenol, 2-iodo-4-methyl-","InChI=1S/C7H7IO/c1-5-2-3-7(9)6(8)4-5/h2-4,9H,1H3",JITSLEIKSRKKCZ-UHFFFAOYSA-N,Cc1ccc(O)c(I)c1,-2.4662,0.0,1,G1
B-2477,"2-propenoic acid, 3-[2-(acetyloxy)phenyl]-, (e)-","InChI=1S/C11H10O4/c1-8(12)15-10-5-3-2-4-9(10)6-7-11(13)14/h2-7H,1H3,(H,13,14)/b7-6+",UXOWQQCLBQBRMQ-VOTSOKGWSA-N,CC(=O)Oc1ccccc1\C=C\C(O)=O,-3.1559,0.0,1,G1
B-2479,"benzoic acid, 3-chloro-4-hydroxy-, ethyl ester","InChI=1S/C9H9ClO3/c1-2-13-9(12)6-3-4-8(11)7(10)5-6/h3-5,11H,2H2,1H3",QBOWIPYEPOVPGR-UHFFFAOYSA-N,CCOC(=O)c1ccc(O)c(Cl)c1,-3.2232,0.0,1,G1
B-2480,"l-glutamic acid, n-l-leucyl-","InChI=1S/C11H20N2O5/c1-6(2)5-7(12)10(16)13-8(11(17)18)3-4-9(14)15/h6-8H,3-5,12H2,1-2H3,(H,13,16)(H,14,15)(H,17,18)/t7-,8-/m0/s1",NFNVDJGXRFEYTK-YUMQZZPRSA-N,CC(C)C[C@H](N)C(=O)N[C@@H](CCC(O)=O)C(O)=O,-0.8969,0.0,1,G1
B-2481,"butanamide, n-methyl-n-nitroso-","InChI=1S/C5H10N2O2/c1-3-4-5(8)7(2)6-9/h3-4H2,1-2H3",XPQQMTYSKBRMIY-UHFFFAOYSA-N,CCCC(=O)N(C)N=O,-1.5347,0.0,1,G1
B-2482,mecoprop-p,"InChI=1S/C10H11ClO3/c1-6-5-8(11)3-4-9(6)14-7(2)10(12)13/h3-5,7H,1-2H3,(H,12,13)/t7-/m1/s1",WNTGYJSOUMFZEP-SSDOTTSWSA-N,C[C@@H](Oc1ccc(Cl)cc1C)C(O)=O,-2.3972,0.0,1,G1
B-2483,"2-propenamide, 2-chloro-","InChI=1S/C3H4ClNO/c1-2(4)3(5)6/h1H2,(H2,5,6)",YBXYCBGDIALKAK-UHFFFAOYSA-N,NC(=O)C(Cl)=C,-0.2104,0.0,1,G1
B-2485,"hydantoin, 5-methyl-5-(2-piperidinoethyl)-","InChI=1S/C11H19N3O2/c1-11(9(15)12-10(16)13-11)5-8-14-6-3-2-4-7-14/h2-8H2,1H3,(H2,12,13,15,16)",PXXUBGGGONGQBX-UHFFFAOYSA-N,CC1(CCN2CCCCC2)NC(=O)NC1=O,-0.8213,0.0,1,G1
B-2486,"à-d-glucofuranose, 1,2:5,6-bis-o-(1-methylethyli","InChI=1S/C14H22O7/c1-7(15)17-10-9(8-6-16-13(2,3)19-8)18-12-11(10)20-14(4,5)21-12/h8-12H,6H2,1-5H3/t8-,9-,10+,11-,12-/m1/s1",QZKDRLZSJSWQPS-RMPHRYRLSA-N,CC(=O)O[C@H]1[C@H](O[C@@H]2OC(C)(C)O[C@H]12)[C@H]3COC(C)(C)O3,-1.5229,0.0,1,G1
B-2487,"2-thiazolecarboxylic acid, hydrazide","InChI=1S/C4H5N3OS/c5-7-3(8)4-6-1-2-9-4/h1-2H,5H2,(H,7,8)",OPJYIWMGTSMLKB-UHFFFAOYSA-N,NNC(=O)c1sccn1,-0.6787,0.0,1,G1
B-2490,4-chloroguaiacol,"InChI=1S/C7H7ClO2/c1-10-7-4-5(8)2-3-6(7)9/h2-4,9H,1H3",FVZQMMMRFNURSH-UHFFFAOYSA-N,COc1cc(Cl)ccc1O,-1.5013,0.0,1,G1
B-2491,"benzenesulfonamide, 4-amino-n-1,3,4-thiadiazol-2","InChI=1S/C8H8N4O2S2/c9-6-1-3-7(4-2-6)16(13,14)12-8-11-10-5-15-8/h1-5H,9H2,(H,11,12)",ATEAASNFYTUARU-UHFFFAOYSA-N,Nc1ccc(cc1)[S](=O)(=O)Nc2scnn2,-2.8684,0.0,1,G1
B-2492,"2-furanacetic acid, tetrahydro-2-methyl-5-oxo-,","InChI=1S/C9H14O4/c1-3-12-8(11)6-9(2)5-4-7(10)13-9/h3-6H2,1-2H3",XPHDAEADNYTVAU-UHFFFAOYSA-N,CCOC(=O)CC1(C)CCC(=O)O1,-0.7472,0.0,1,G1
B-2493,"succinic acid, 2-ethyl-3-phenyl-","InChI=1S/C12H14O4/c1-2-9(11(13)14)10(12(15)16)8-6-4-3-5-7-8/h3-7,9-10H,2H2,1H3,(H,13,14)(H,15,16)",AAQWYJPJRWOQEV-UHFFFAOYSA-N,CCC(C(C(O)=O)c1ccccc1)C(O)=O,-2.3256,0.0,1,G1
B-2494,"benzamide, 2,4-dichloro-n-hydroxy-n-phenyl-","InChI=1S/C13H9Cl2NO2/c14-9-6-7-11(12(15)8-9)13(17)16(18)10-4-2-1-3-5-10/h1-8,18H",HUOHOGDVFDYSTQ-UHFFFAOYSA-N,ON(c1ccccc1)C(=O)c2ccc(Cl)cc2Cl,-3.6723,0.0,1,G1
B-2496,"barbituric acid, 5-bromo-5-isopropyl-","InChI=1S/C7H9BrN2O3/c1-3(2)7(8)4(11)9-6(13)10-5(7)12/h3H,1-2H3,(H2,9,10,11,12,13)",VDWQDWRNMYXLOV-UHFFFAOYSA-N,CC(C)C1(Br)C(=O)NC(=O)NC1=O,-2.2088,0.0,1,G1
B-2497,"1,4-benzenedisulfonamide","InChI=1S/C6H8N2O4S2/c7-13(9,10)5-1-2-6(4-3-5)14(8,11)12/h1-4H,(H2,7,9,10)(H2,8,11,12)",WOUBWJAJSXAOIV-UHFFFAOYSA-N,N[S](=O)(=O)c1ccc(cc1)[S](N)(=O)=O,-2.5283,0.0,1,G1
B-2498,"barbituric acid,5,5-dibutyl-","InChI=1S/C12H20N2O3/c1-3-5-7-12(8-6-4-2)9(15)13-11(17)14-10(12)16/h3-8H2,1-2H3,(H2,13,14,15,16,17)",KXOZJFGEGGNJDX-UHFFFAOYSA-N,CCCCC1(CCCC)C(=O)NC(=O)NC1=O,-2.8756,0.0,1,G1
B-2499,8-cinnolinol,"InChI=1S/C8H6N2O/c11-7-3-1-2-6-4-5-9-10-8(6)7/h1-5,11H",UCYUOFIVFHOUTP-UHFFFAOYSA-N,Oc1cccc2ccnnc12,-2.4089,0.0,1,G1
B-2500,"8-cinnolinol, 4-methyl-","InChI=1S/C9H8N2O/c1-6-5-10-11-9-7(6)3-2-4-8(9)12/h2-5,12H,1H3",OLTFEHQRFCVOLY-UHFFFAOYSA-N,Cc1cnnc2c(O)cccc12,-2.6783,0.0,1,G1
B-2501,5-quinoxalinol,"InChI=1S/C8H6N2O/c11-7-3-1-2-6-8(7)10-5-4-9-6/h1-5,11H",ZUQDDQFXSNXEOD-UHFFFAOYSA-N,Oc1cccc2nccnc12,-1.3468,0.0,1,G1
B-2502,"1,6-naphthyridin-8-ol","InChI=1S/C8H6N2O/c11-7-5-9-4-6-2-1-3-10-8(6)7/h1-5,11H",WHFQWQIDXMOZBD-UHFFFAOYSA-N,Oc1cncc2cccnc12,-1.6576,0.0,1,G1
B-2503,"glycine, n-[n-(n-carbamoylglycyl)glycyl]-","InChI=1S/C7H12N4O5/c8-7(16)11-2-5(13)9-1-4(12)10-3-6(14)15/h1-3H2,(H,9,13)(H,10,12)(H,14,15)(H3,8,11,16)",GKOORVATHBVNBA-UHFFFAOYSA-N,NC(=O)NCC(=O)NCC(=O)NCC(O)=O,-1.3505,0.0,1,G1
B-2504,"butanoic acid, 2-(ethylamino)-","InChI=1S/C6H13NO2/c1-3-5(6(8)9)7-4-2/h5,7H,3-4H2,1-2H3,(H,8,9)",PRXQQZUWYABUCX-UHFFFAOYSA-N,CCNC(CC)C(O)=O,-0.4189,0.0,1,G1
B-2506,"glycine, n-[n-(aminocarbonyl)glycyl]-","InChI=1S/C5H9N3O4/c6-5(12)8-1-3(9)7-2-4(10)11/h1-2H2,(H,7,9)(H,10,11)(H3,6,8,12)",BMRYPQYWSJESHA-UHFFFAOYSA-N,NC(=O)NCC(=O)NCC(O)=O,-0.8996,0.0,1,G1
B-2508,"3,5-dinitro-l-tyrosine","InChI=1S/C9H9N3O7/c10-5(9(14)15)1-4-2-6(11(16)17)8(13)7(3-4)12(18)19/h2-3,5,13H,1,10H2,(H,14,15)/t5-/m0/s1",SAZOSDSFLRXREA-YFKPBYRVSA-N,N[C@@H](Cc1cc(c(O)c(c1)[N+]([O-])=O)[N+]([O-])=O)C(O)=O,-1.5125,0.0,1,G1
B-2509,"acetone, 4-(p-nitrophenyl)semicarbazone","InChI=1S/C10H12N4O3/c1-7(2)12-13-10(15)11-8-3-5-9(6-4-8)14(16)17/h3-6H,1-2H3,(H2,11,13,15)",XBOWKFFJMDFKOW-UHFFFAOYSA-N,CC(C)=NNC(=O)Nc1ccc(cc1)[N+]([O-])=O,-3.5952,0.0,1,G1
B-2510,"1,3,5-benzenetricarboxylic acid, 2-methoxy-","InChI=1S/C10H8O7/c1-17-7-5(9(13)14)2-4(8(11)12)3-6(7)10(15)16/h2-3H,1H3,(H,11,12)(H,13,14)(H,15,16)",VPHWGVPHJXKPOK-UHFFFAOYSA-N,COc1c(cc(cc1C(O)=O)C(O)=O)C(O)=O,-1.5354,0.0,1,G1
B-2511,"1(3h)-isobenzofuranone, 3-ethyl-","InChI=1S/C10H10O2/c1-2-9-7-5-3-4-6-8(7)10(11)12-9/h3-6,9H,2H2,1H3",VMTZKGPXYYJUAR-UHFFFAOYSA-N,CCC1OC(=O)c2ccccc12,-1.7469999999999999,0.0,1,G1
B-2513,"1,2,4-triazin-3-amine, 5,6-dimethyl-","InChI=1S/C5H8N4/c1-3-4(2)8-9-5(6)7-3/h1-2H3,(H2,6,7,9)",UIKGLXJNZXSPGV-UHFFFAOYSA-N,Cc1nnc(N)nc1C,-1.0939,0.0,1,G1
B-2515,"butanedinitrile, ethyl-","InChI=1S/C6H8N2/c1-2-6(5-8)3-4-7/h6H,2-3H2,1H3",GDCJAPJJFZWILF-UHFFFAOYSA-N,CCC(CC#N)C#N,-0.6916,0.0,1,G1
B-2516,amicetin,"InChI=1S/C29H42N6O9/c1-15-19(44-26-24(38)23(37)22(34(4)5)16(2)43-26)10-11-21(42-15)35-13-12-20(33-28(35)41)32-25(39)17-6-8-18(9-7-17)31-27(40)29(3,30)14-36/h6-9,12-13,15-16,19,21-24,26,36-38H,10-11,14,30H2,1-5H3,(H,31,40)(H,32,33,39,41)",HDNVYHWHCVTDIV-UHFFFAOYSA-N,CC1OC(CCC1OC2OC(C)C(C(O)C2O)N(C)C)N3C=CC(=NC3=O)NC(=O)c4ccc(NC(=O)C(C)(N)CO)cc4,-2.4904,0.0,1,G1
B-2517,"1,2-benzenedicarboxylic acid, mono(2-hydroxyethy","InChI=1S/C10H10O5/c11-5-6-15-10(14)8-4-2-1-3-7(8)9(12)13/h1-4,11H,5-6H2,(H,12,13)",NTINFTOOVNKGIU-UHFFFAOYSA-N,OCCOC(=O)c1ccccc1C(O)=O,-1.4825,0.0,1,G1
B-2520,"phenol, 4-amino-2,6-dinitro-","InChI=1S/C6H5N3O5/c7-3-1-4(8(11)12)6(10)5(2-3)9(13)14/h1-2,10H,7H2",TTXPIURLJOPGTE-UHFFFAOYSA-N,Nc1cc(c(O)c(c1)[N+]([O-])=O)[N+]([O-])=O,-2.3853,0.0,1,G1
B-2522,"1-pentene, 5-isothiocyanato-","InChI=1S/C6H9NS/c1-2-3-4-5-7-6-8/h2H,1,3-5H2",DBISBKDNOKIADM-UHFFFAOYSA-N,C=CCCCN=C=S,-2.9004,0.0,1,G1
B-2523,"[1,1'-biphenyl]-3-ol, 4-nitro-","InChI=1S/C12H9NO3/c14-12-8-10(6-7-11(12)13(15)16)9-4-2-1-3-5-9/h1-8,14H",HYPKGPVDQYUOSV-UHFFFAOYSA-N,Oc1cc(ccc1[N+]([O-])=O)c2ccccc2,-3.8557,0.0,1,G1
B-2524,"benzaldehyde, 4-hydroxy-3-methoxy-2-methyl-","InChI=1S/C9H10O3/c1-6-7(5-10)3-4-8(11)9(6)12-2/h3-5,11H,1-2H3",NHXMRQITQSBVLJ-UHFFFAOYSA-N,COc1c(C)c(C=O)ccc1O,-1.3755,0.0,1,G1
B-2525,"benzoic acid, 4-amino-, 1-methylethyl ester","InChI=1S/C10H13NO2/c1-7(2)13-10(12)8-3-5-9(11)6-4-8/h3-7H,11H2,1-2H3",JWCPZKNBPMSYND-UHFFFAOYSA-N,CC(C)OC(=O)c1ccc(N)cc1,-2.6099,0.0,1,G1
B-2527,"1-propanamine, 3-(trimethylsilyl)-","InChI=1S/C6H17NSi/c1-8(2,3)6-4-5-7/h4-7H2,1-3H3",PFRLCKFENIXNMM-UHFFFAOYSA-N,C[Si](C)(C)CCCN,-1.9509,0.0,1,G1
B-2528,"hydrazinecarboximidamide, n-nitro-","InChI=1S/CH5N5O2/c2-1(4-3)5-6(7)8/h3H2,(H3,2,4,5)",LWPLPMSGDZDOLW-UHFFFAOYSA-N,NNC(=N)N[N+]([O-])=O,-1.6458,0.0,1,G1
B-2529,"benzenemethanol, 4-iodo-","InChI=1S/C7H7IO/c8-7-3-1-6(5-9)2-4-7/h1-4,9H,5H2",CNQRHSZYVFYOIE-UHFFFAOYSA-N,OCc1ccc(I)cc1,-2.7460000000000004,0.0,1,G1
B-2530,"1,2-cyclohexanedione, 3-methyl-, dioxime","InChI=1S/C7H12N2O2/c1-5-3-2-4-6(8-10)7(5)9-11/h5,10-11H,2-4H2,1H3",KVMQRKQPHOCZHY-UHFFFAOYSA-N,CC1CCCC(=NO)C1=NO,-1.5916,0.0,1,G1
B-2531,"1,2-cyclohexanedione, 4-methyl-, dioxime","InChI=1S/C7H12N2O2/c1-5-2-3-6(8-10)7(4-5)9-11/h5,9,11H,2-4H2,1H3",GJADLHDOELLEFC-UHFFFAOYSA-N,CC1CCC(=C(C1)NO)N=O,-1.6622,0.0,1,G1
B-2532,"1,2-cyclohexanedione, 4-isopropyl-, dioxime","InChI=1S/C9H16N2O2/c1-6(2)7-3-4-8(10-12)9(5-7)11-13/h6-7,12-13H,3-5H2,1-2H3",NYHAZDHVIPVSDM-UHFFFAOYSA-N,CC(C)C1CCC(=NO)C(C1)=NO,-2.3903,0.0,1,G1
B-2533,"l-alanine, n-(aminocarbonyl)-","InChI=1S/C4H8N2O3/c1-2(3(7)8)6-4(5)9/h2H,1H3,(H,7,8)(H3,5,6,9)/p-1/t2-/m0/s1",LUSWEUMSEVLFEQ-REOHCLBHSA-M,C[C@H](NC(N)=O)C([O-])=O,-0.9656,0.0,1,G1
B-2534,"benz(a)anthracene-4,5-dimethylene","InChI=1S/C20H16/c1-13-6-5-9-18-19-12-16-8-4-3-7-15(16)11-17(19)10-14(2)20(13)18/h3-12H,1-2H3",XVSYIHPFNPQXRA-UHFFFAOYSA-N,Cc1cccc2c3cc4ccccc4cc3cc(C)c12,-7.9743,0.0,1,G1
B-2535,"1,2-cyclodecanedione, dioxime","InChI=1S/C10H18N2O2/c13-11-9-7-5-3-1-2-4-6-8-10(9)12-14/h13-14H,1-8H2",SUIIPPMGDURFRE-UHFFFAOYSA-N,ON=C1CCCCCCCCC1=NO,-2.5813,0.0,1,G1
B-2538,"ethanesulfinothioic acid, s-ethyl ester","InChI=1S/C4H10OS2/c1-3-6-7(5)4-2/h3-4H2,1-2H3",FIWQKOIUXFENIV-UHFFFAOYSA-N,CCS[S](=O)CC,-0.0993,0.0,1,G1
B-2540,"2h-pyran, tetrahydro-2-methoxy-6-methyl-","InChI=1S/C7H14O2/c1-6-4-3-5-7(8-2)9-6/h6-7H,3-5H2,1-2H3",FNEUIJOQHOUXIE-UHFFFAOYSA-N,COC1CCCC(C)O1,-0.5921,0.0,1,G1
B-2541,"2-oxabicyclo[2.2.2]octan-6-one, 1,3,3-trimethyl-","InChI=1S/C10H16O2/c1-9(2)7-4-5-10(3,12-9)8(11)6-7/h7H,4-6H2,1-3H3",CCBAAZXPXFYPBE-UHFFFAOYSA-N,CC1(C)OC2(C)CCC1CC2=O,-0.9249,0.0,1,G1
B-2543,"3-heptanol, 2-methyl-","InChI=1S/C8H18O/c1-4-5-6-8(9)7(2)3/h7-9H,4-6H2,1-3H3",QGVFLDUEHSIZIG-UHFFFAOYSA-N,CCCCC(O)C(C)C,-1.8122,0.0,1,G1
B-2544,"3-heptanol, 5-methyl-","InChI=1S/C8H18O/c1-4-7(3)6-8(9)5-2/h7-9H,4-6H2,1-3H3",SECKOSOTZOBWEI-UHFFFAOYSA-N,CCC(C)CC(O)CC,-1.8602,0.0,1,G1
B-2545,ethylisopentylcarbinol,"InChI=1S/C8H18O/c1-4-8(9)6-5-7(2)3/h7-9H,4-6H2,1-3H3",MNBIBGDICHMQFN-UHFFFAOYSA-N,CCC(O)CCC(C)C,-1.9272,0.0,1,G1
B-2546,"2,5-selenophenedicarboxylic acid, tetrahydro-","InChI=1S/C6H8O4Se/c7-5(8)3-1-2-4(11-3)6(9)10/h3-4H,1-2H2,(H,7,8)(H,9,10)",WFKGWJKGEDFLTH-UHFFFAOYSA-N,OC(=O)C1CCC([Se]1)C(O)=O,-0.545,0.0,1,G1
B-2547,isoxathion,"InChI=1S/C13H16NO4PS/c1-3-15-19(20,16-4-2)18-13-10-12(17-14-13)11-8-6-5-7-9-11/h5-10H,3-4H2,1-2H3",SDMSCIWHRZJSRN-UHFFFAOYSA-N,CCO[P](=S)(OCC)Oc1cc(on1)c2ccccc2,-5.2172,0.0,1,G1
B-2548,"butanoic acid, 3-methyl-, 4-nitrophenyl ester","InChI=1S/C11H13NO4/c1-8(2)7-11(13)16-10-5-3-9(4-6-10)12(14)15/h3-6,8H,7H2,1-2H3",SZQWZNOMEWDZLR-UHFFFAOYSA-N,CC(C)CC(=O)Oc1ccc(cc1)[N+]([O-])=O,-4.3945,0.0,1,G1
B-2549,"benzenemethanol, 2-bromo-","InChI=1S/C7H7BrO/c8-7-4-2-1-3-6(7)5-9/h1-4,9H,5H2",IOWGHQGLUMEZKG-UHFFFAOYSA-N,OCc1ccccc1Br,-2.158,0.0,1,G1
B-2551,"acetamide, n- 4- (2-pyridinylamino)sulfonyl phen","InChI=1S/C13H13N3O3S/c1-10(17)15-11-5-7-12(8-6-11)20(18,19)16-13-4-2-3-9-14-13/h2-9H,1H3,(H,14,16)(H,15,17)",CYLYVXPHAQLXFG-UHFFFAOYSA-N,CC(=O)Nc1ccc(cc1)[S](=O)(=O)Nc2ccccn2,-3.7162,0.0,1,G1
B-2554,"nicotinamide, n-(6-methoxy-8-quinolyl)-","InChI=1S/C16H13N3O2/c1-21-13-8-11-4-3-7-18-15(11)14(9-13)19-16(20)12-5-2-6-17-10-12/h2-10H,1H3,(H,19,20)",ZWJRCYOUDPYYAQ-UHFFFAOYSA-N,COc1cc(NC(=O)c2cccnc2)c3ncccc3c1,-4.4461,0.0,1,G1
B-2555,polyoxin b,"InChI=1S/C17H25N5O13/c18-6(8(25)5(24)3-34-16(19)32)13(29)20-7(15(30)31)11-9(26)10(27)14(35-11)22-1-4(2-23)12(28)21-17(22)33/h1,5-11,14,23-27H,2-3,18H2,(H2,19,32)(H,20,29)(H,30,31)(H,21,28,33)/t5-,6-,7-,8+,9?,10?,11+,14+/m0/s1",YFZNSPMAOIVQRP-KMJOXCMOSA-N,N[C@@H]([C@H](O)[C@@H](O)COC(N)=O)C(=O)N[C@@H]([C@H]1O[C@H](C(O)C1O)N2C=C(CO)C(=O)NC2=O)C(O)=O,0.2946,0.0,1,G1
B-2556,5-chlorovanillin,"InChI=1S/C8H7ClO3/c1-12-7-3-5(4-10)2-6(9)8(7)11/h2-4,11H,1H3",ONIVKFDMLVBDRK-UHFFFAOYSA-N,COc1cc(C=O)cc(Cl)c1O,-2.8747,0.0,1,G1
B-2557,"1(3h)-isobenzofuranone, 6-bromo-","InChI=1S/C8H5BrO2/c9-6-2-1-5-4-11-8(10)7(5)3-6/h1-3H,4H2",BELKVKMBIAENSA-UHFFFAOYSA-N,Brc1ccc2COC(=O)c2c1,-2.6472,0.0,1,G1
B-2560,"phenol, 2,4-dichloro-6-(phenylmethyl)-","InChI=1S/C13H10Cl2O/c14-11-7-10(13(16)12(15)8-11)6-9-4-2-1-3-5-9/h1-5,7-8,16H,6H2",MJTIYXIISJNFMG-UHFFFAOYSA-N,Oc1c(Cl)cc(Cl)cc1Cc2ccccc2,-4.6399,0.0,1,G1
B-2561,"1(3h)-isobenzofuranone, 6-chloro-","InChI=1S/C8H5ClO2/c9-6-2-1-5-4-11-8(10)7(5)3-6/h1-3H,4H2",NUAVXUHBPNMQEV-UHFFFAOYSA-N,Clc1ccc2COC(=O)c2c1,-2.4817,0.0,1,G1
B-2563,"1-naphthoic acid, 4-ethoxy-","InChI=1S/C13H12O3/c1-2-16-12-8-7-11(13(14)15)9-5-3-4-6-10(9)12/h3-8H,2H2,1H3,(H,14,15)",AOKDTARDWHVNDE-UHFFFAOYSA-N,CCOc1ccc(C(O)=O)c2ccccc12,-4.1122,0.0,1,G1
B-2564,"1,2-butanediol, 2-methyl-1-phenyl-","InChI=1S/C11H16O2/c1-3-11(2,13)10(12)9-7-5-4-6-8-9/h4-8,10,12-13H,3H2,1-2H3",VUHBPPSSQKUCSE-UHFFFAOYSA-N,CCC(C)(O)C(O)c1ccccc1,-1.7244,0.0,1,G1
B-2565,"d-leucine, n-acetyl-","InChI=1S/C8H15NO3/c1-5(2)4-7(8(11)12)9-6(3)10/h5,7H,4H2,1-3H3,(H,9,10)(H,11,12)/t7-/m1/s1",WXNXCEHXYPACJF-SSDOTTSWSA-N,CC(C)C[C@@H](NC(C)=O)C(O)=O,-1.3301,0.0,1,G1
B-2567,"dl-serine, o-methyl-","InChI=1S/C4H9NO3/c1-8-2-3(5)4(6)7/h3H,2,5H2,1H3,(H,6,7)/t3-/m0/s1",KNTFCRCCPLEUQZ-VKHMYHEASA-N,COC[C@H](N)C(O)=O,0.6524,0.0,1,G1
B-2568,"4(1h)-pyrimidinone, 5-bromo-","InChI=1S/C4H3BrN2O/c5-3-1-6-2-7-4(3)8/h1-2H,(H,6,7,8)",CLJIGLPOBRSBNU-UHFFFAOYSA-N,BrC1=CN=CNC1=O,-0.4471,0.0,1,G1
B-2569,"3-pyridinecarbonitrile, 6-chloro-1,2-dihydro-4-h","InChI=1S/C6H3ClN2O2/c7-5-1-4(10)3(2-8)6(11)9-5/h1H,(H2,9,10,11)",RXXVHWHDEKSPRL-UHFFFAOYSA-N,OC1=C(C#N)C(=O)C=C(Cl)N1,-1.2319,0.0,1,G1
B-2570,"propanoic acid, 3-hydroxy-2-methyl-, 2,3,3a,4,5,","InChI=1S/C19H26O6/c1-11-5-4-6-14(10-21)8-16-17(13(3)19(23)25-16)15(7-11)24-18(22)12(2)9-20/h5,8,12,15-17,20-21H,3-4,6-7,9-10H2,1-2H3/b11-5+,14-8-/t12?,15-,16+,17+/m0/s1",VOOFFTMORIBISQ-UMRVURNHSA-N,CC(CO)C(=O)O[C@H]1CC(=C/CCC(=C/[C@H]2OC(=O)C(=C)[C@H]12)/CO)/C,-2.2436,0.0,1,G1
B-2571,ethyl isopropylamine,"InChI=1S/C5H13N/c1-4-6-5(2)3/h5-6H,4H2,1-3H3",RIVIDPPYRINTTH-UHFFFAOYSA-N,CCNC(C)C,1.0597,0.0,1,G1
B-2574,"2-furaldehyde, 5-nitro-, 2-pentylsemicarbazone","InChI=1S/C11H16N4O4/c1-2-3-4-7-14(11(12)16)13-8-9-5-6-10(19-9)15(17)18/h5-6,8H,2-4,7H2,1H3,(H2,12,16)",WWWBXFHCAYRVDH-UHFFFAOYSA-N,CCCCCN(N=Cc1oc(cc1)[N+]([O-])=O)C(N)=O,-2.8971,0.0,1,G1
B-2577,diethyl pentyl phosphate,"InChI=1S/C9H21O4P/c1-4-7-8-9-13-14(10,11-5-2)12-6-3/h4-9H2,1-3H3",ITJPTURSPJESQC-UHFFFAOYSA-N,CCCCCO[P](=O)(OCC)OCC,-1.4757,0.0,1,G1
B-2580,"3-octanol, (.+-.)-","InChI=1S/C8H18O/c1-3-5-6-7-8(9)4-2/h8-9H,3-7H2,1-2H3",NMRPBPVERJPACX-UHFFFAOYSA-N,CCCCCC(O)CC,-2.0171,0.161844789877337,4,G5
B-2581,"phosphorodithioic acid, s-[2-(ethylsulfonyl)ethy","InChI=1S/C6H15O4PS3/c1-4-14(7,8)6-5-13-11(12,9-2)10-3/h4-6H2,1-3H3",GAXMYYJSILFZLT-UHFFFAOYSA-N,CC[S](=O)(=O)CCS[P](=S)(OC)OC,-2.5415,0.0,1,G1
B-2582,tripropylene glycol methyl ether,"InChI=1S/C10H22O4/c1-8(11)5-13-10(3)7-14-9(2)6-12-4/h8-11H,5-7H2,1-4H3",HPFDGTFXAVIVTH-UHFFFAOYSA-N,COCC(C)OCC(C)OCC(C)O,0.6855,0.0,1,G1
B-2584,"acetamide, n-(4-propoxyphenyl)-","InChI=1S/C11H15NO2/c1-3-8-14-11-6-4-10(5-7-11)12-9(2)13/h4-7H,3,8H2,1-2H3,(H,12,13)",WDRXFPOGKSGHFM-UHFFFAOYSA-N,CCCOc1ccc(NC(C)=O)cc1,-3.0557,0.0,1,G1
B-2585,"2-bornanone, 3-(hydroxymethyl)-","InChI=1S/C11H18O2/c1-10(2)8-4-5-11(10,3)9(13)7(8)6-12/h7-8,12H,4-6H2,1-3H3",YWQRRMNZXWQQJU-UHFFFAOYSA-N,CC1(C)C2CCC1(C)C(=O)C2CO,-0.215,0.0,1,G1
B-2586,"urea, 1-methyl-1-o-tolyl-","InChI=1S/C9H12N2O/c1-7-5-3-4-6-8(7)11(2)9(10)12/h3-6H,1-2H3,(H2,10,12)",IWYDNHDPJXFEOV-UHFFFAOYSA-N,CN(C(N)=O)c1ccccc1C,-0.4032,0.0,1,G1
B-2587,1-hexyl nitrate,"InChI=1S/C6H13NO3/c1-2-3-4-5-6-10-7(8)9/h2-6H2,1H3",AGDYNDJUZRMYRG-UHFFFAOYSA-N,CCCCCCO[N+]([O-])=O,-3.1265,0.0,1,G1