ID,Name,InChI,InChIKey,SMILES,Solubility,SD,Occurrences,Group
E-716,octyl-4-aminobenzoate,"InChI=1S/C15H23NO2/c1-2-3-4-5-6-7-12-18-15(17)13-8-10-14(16)11-9-13/h8-11H,2-7,12,16H2,1H3",XOEUGELJHSUYGP-UHFFFAOYSA-N,CCCCCCCCOC(=O)c1ccc(N)cc1,-5.4,0.0,1,G1
E-717,salicylanilide,"InChI=1S/C13H11NO2/c15-12-9-5-4-8-11(12)13(16)14-10-6-2-1-3-7-10/h1-9,15H,(H,14,16)",WKEDVNSFRWHDNR-UHFFFAOYSA-N,O=C(Nc(cccc1)c1)c(c(O)ccc2)c2,-3.59,0.0,1,G1
E-719,thioanisole,"InChI=1S/C7H8S/c1-8-7-5-3-2-4-6-7/h2-6H,1H3",HNKJADCVZUBCPG-UHFFFAOYSA-N,S(c(cccc1)c1)C,-2.39,0.0,1,G1
E-720,formanilide,"InChI=1S/C7H7NO/c9-6-8-7-4-2-1-3-5-7/h1-6H,(H,8,9)",DYDNPESBYVVLBO-UHFFFAOYSA-N,O=CNc(cccc1)c1,-0.68,0.0,1,G1
E-721,N-acetylsulfanilamide,"InChI=1S/C8H10N2O3S/c1-6(11)10-7-2-4-8(5-3-7)14(9,12)13/h2-5H,1H3,(H,10,11)(H2,9,12,13)",PKOFBDHYTMYVGJ-UHFFFAOYSA-N,c1cc(NC(=O)C)ccc1S(=O)(=O)N,-1.61,0.29999999999999993,2,G3
E-722,3-methylacetanilide,"InChI=1S/C9H11NO/c1-7-4-3-5-9(6-7)10-8(2)11/h3-6H,1-2H3,(H,10,11)",ALMHSXDYCFOZQD-UHFFFAOYSA-N,O=C(Nc(cccc1C)c1)C,-2.09,0.0,1,G1
E-723,2-nitroacetanilide,"InChI=1S/C8H8N2O3/c1-6(11)9-7-4-2-3-5-8(7)10(12)13/h2-5H,1H3,(H,9,11)",BUNFNRVLMKHKIT-UHFFFAOYSA-N,O=C(Nc(c(N(=O)=O)ccc1)c1)C,-1.91,0.0,1,G1
E-724,N-methylacetanilide,"InChI=1S/C9H11NO/c1-8(11)10(2)9-6-4-3-5-7-9/h3-7H,1-2H3",LMTGCJANOQOGPI-UHFFFAOYSA-N,O=C(N(c(cccc1)c1)C)C,-0.95,0.09999999999999998,2,G3
E-726,naepaine,"InChI=1S/C14H22N2O2/c1-2-3-4-9-16-10-11-18-14(17)12-5-7-13(15)8-6-12/h5-8,16H,2-4,9-11,15H2,1H3",UYXHCVFXDBNRQW-UHFFFAOYSA-N,c1cc(N)ccc1C(=O)OCCNCCCCC,-3.27,0.0,1,G1
E-727,nimetazepam,"InChI=1S/C16H13N3O3/c1-18-14-8-7-12(19(21)22)9-13(14)16(17-10-15(18)20)11-5-3-2-4-6-11/h2-9H,10H2,1H3",GWUSZQUVEVMBPI-UHFFFAOYSA-N,c1c(N(=O)(=O))cc2C(c3ccccc3)=NCC(=O)N(C)c2c1,-3.8,0.0,1,G1
E-728,stadacaine,"InChI=1S/C17H27NO3/c1-4-7-13-20-16-10-8-15(9-11-16)17(19)21-14-12-18(5-2)6-3/h8-11H,4-7,12-14H2,1-3H3",QNIUOGIMJWORNZ-UHFFFAOYSA-N,c1cc(OCCCC)ccc1C(=O)OCCN(CC)CC,-3.84,0.0,1,G1
E-729,tripelenamine,"InChI=1S/C16H21N3/c1-18(2)12-13-19(16-10-6-7-11-17-16)14-15-8-4-3-5-9-15/h3-11H,12-14H2,1-2H3",UFLGIAIHIAPJJC-UHFFFAOYSA-N,n(c(N(Cc(cccc1)c1)CCN(C)C)ccc2)c2,-2.64,0.0,1,G1
E-730,medrogestone,"InChI=1S/C23H32O2/c1-14-12-17-18(21(3)9-6-16(25)13-20(14)21)7-11-23(5)19(17)8-10-22(23,4)15(2)24/h12-13,17-19H,6-11H2,1-5H3",HCFSGRMEEXUOSS-UHFFFAOYSA-N,C1C(=O)C=C2C(C)=CC3C4CCC(C(=O)C)(C)C4(C)CCC3C2(C)C1,-5.27,0.040000000000000036,2,G3
E-731,megestrol_acetate,"InChI=1S/C24H32O4/c1-14-12-18-19(22(4)9-6-17(27)13-21(14)22)7-10-23(5)20(18)8-11-24(23,15(2)25)28-16(3)26/h12-13,18-20H,6-11H2,1-5H3",RQZAXGRLVPAYTJ-UHFFFAOYSA-N,C1C(=O)C=C2C(C)=CC3C4CCC(C(=O)C)(OC(=O)C)C4(C)CCC3C2(C)C1,-5.35,0.03000000000000025,2,G3
E-732,ethylcyclohexane,"InChI=1S/C8H16/c1-2-8-6-4-3-5-7-8/h8H,2-7H2,1H3",IIEWJVIFRVWJOD-UHFFFAOYSA-N,C1CCCCC1CC,-4.25,0.0,1,G1
E-733,"4,5-dichloroquiaiacol","InChI=1S/C7H6Cl2O2/c1-11-7-3-5(9)4(8)2-6(7)10/h2-3,10H,1H3",HAAFFTHBNFBVKY-UHFFFAOYSA-N,c1c(Cl)c(Cl)cc(O)c1OC,-2.53,0.0,1,G1
E-734,L-carvone,"InChI=1S/C10H14O/c1-7(2)9-5-4-8(3)10(11)6-9/h4,9H,1,5-6H2,2-3H3",ULDHMXUKGWMISQ-UHFFFAOYSA-N,O=C(C(=CCC1C(=C)C)C)C1,-2.06,0.0,1,G1
E-735,Nitroguanidine,"InChI=1S/CH4N4O2/c2-1(3)4-5(6)7/h(H4,2,3,4)",IDCPFAYURAQKDZ-UHFFFAOYSA-N,O=N(=O)NC(=N)N,-1.37,0.0,1,G1
E-737,Parabanic_Acid,"InChI=1S/C3H2N2O3/c6-1-2(7)5-3(8)4-1/h(H2,4,5,6,7,8)",ZFLIKDUSUDBGCD-UHFFFAOYSA-N,O=C(NC(=O)C1=O)N1,-0.4,0.0,1,G1
E-738,beta-Iodopropionic_Acid,"InChI=1S/C3H5IO2/c4-2-1-3(5)6/h1-2H2,(H,5,6)",KMRNTNDWADEIIX-UHFFFAOYSA-N,O=C(O)CCI,-0.43,0.0,1,G1
E-739,Nitroglycerin,"InChI=1S/C3H5N3O9/c7-4(8)13-1-3(15-6(11)12)2-14-5(9)10/h3H,1-2H2",SNIOPGDIGTZGOP-UHFFFAOYSA-N,O=N(=O)OCC(ON(=O)=O)CON(=O)=O,-2.22,0.0,1,G1
E-740,1-Acetylurea,"InChI=1S/C3H6N2O2/c1-2(6)5-3(4)7/h1H3,(H3,4,5,6,7)",GKRZNOGGALENQJ-UHFFFAOYSA-N,O=C(NC(=O)C)N,-0.9,0.0,1,G1
E-741,Glycerol,"InChI=1S/C3H8O3/c4-1-3(6)2-5/h3-6H,1-2H2",PEDCQBHIVMGVHV-UHFFFAOYSA-N,OCC(O)CO,1.12,0.04200000000000004,2,G3
E-742,Alloxan,"InChI=1S/C4H2N2O4/c7-1-2(8)5-4(10)6-3(1)9/h(H2,5,6,8,9,10)",HIMXGTXNXJYFGB-UHFFFAOYSA-N,O=C(NC(=O)C(=O)C1=O)N1,-1.25,0.0,1,G1
E-743,5-Nitrobarbituric_Acid,"InChI=1S/C4H3N3O5/c8-2-1(7(11)12)3(9)6-4(10)5-2/h1H,(H2,5,6,8,9,10)",ABICJYZKIYUWEE-UHFFFAOYSA-N,O=C(NC(=O)C(N(=O)=O)C1=O)N1,-2.28,0.020000000000000018,2,G3
E-744,4(3H)-Pyrimidone,"InChI=1S/C4H4N2O/c7-4-1-2-5-3-6-4/h2-3H,1H2",TZYQTWHRLVDYPL-UHFFFAOYSA-N,O=C1N=CN=CC1,0.59,0.0,1,G1
E-746,"2,5-Piperazinedione","InChI=1S/C4H6N2O2/c7-3-1-5-4(8)2-6-3/h1-2H2,(H,5,8)(H,6,7)",BXRNXXXXHLBUKK-UHFFFAOYSA-N,O=C(NCC(=O)N1)C1,-0.83,0.0050000000000000044,2,G3
E-748,bis-(2-chloroethyl)-sulfoxide,InChI=1S/C4H8Cl2OS/c5-1-3-8(7)4-2-6/h1-4H2,NOMHBBFEJSVGSC-UHFFFAOYSA-N,ClCCS(=O)CCCl,-1.16,0.0,1,G1
E-749,bis-(2.chloroethyl)-sulfone,"InChI=1S/C3H6Cl2O2S/c4-1-2-8(6,7)3-5/h1-3H2",XEPMSXZCQZXKRP-UHFFFAOYSA-N,ClCCS(=O)(=O)CCl,-1.5,0.0,1,G1
E-750,3-Hydroxytetrahydrofuran,"InChI=1S/C4H8O2/c5-4-1-2-6-3-4/h4-5H,1-3H2",XDPCNPCKDGQBAN-UHFFFAOYSA-N,O(CC(O)C1)C1,1.05,0.0,1,G1
E-754,Orotic_Acid,"InChI=1S/C5H4N2O4/c8-3-1-2(4(9)10)6-5(11)7-3/h1H,(H,9,10)(H2,6,7,8,11)",PXQPEWDEAKTCGB-UHFFFAOYSA-N,C1(=O)NC(=O)NC(C(=O)O)=C1,-1.93,0.0050000000000000044,2,G3
E-755,2-Hydroxypyridine,"InChI=1S/C5H5NO/c7-5-3-1-2-4-6-5/h1-4H,(H,6,7)",UBQKCCHYAOITMY-UHFFFAOYSA-N,n(c(O)ccc1)c1,1.02,0.0,1,G1
E-756,3-Hydroxypyridine,"InChI=1S/C5H5NO/c7-5-2-1-3-6-4-5/h1-4,7H",GRFNBEZIAWKNCO-UHFFFAOYSA-N,n(cccc1O)c1,-0.46,0.0,1,G1
E-757,"1,3-Dichloro-5,5-dimethylhydantoin",InChI=1S/C5H6Cl2N2O2/c1-5(2)3(10)8(6)4(11)9(5)7/h1-2H3,KEQGZUUPPQEDPF-UHFFFAOYSA-N,O=C(N(C(C1=O)(C)C)Cl)N1Cl,-2.6,0.0,1,G1
E-758,5-Methyl-2-thiouracil,"InChI=1S/C5H6N2OS/c1-3-2-6-5(9)7-4(3)8/h2H,1H3,(H2,6,7,8,9)",ZLAQATDNGLKIEV-UHFFFAOYSA-N,n(cc(c(n1)O)C)c1S,-2.45,0.0,1,G1
E-759,Methylthiouracil,"InChI=1S/C5H6N2OS/c1-3-2-4(8)7-5(9)6-3/h2H,1H3,(H2,6,7,8,9)",HWGBHCRJGXAGEU-UHFFFAOYSA-N,n(c(O)cc(n1)C)c1S,-2.43,0.0,1,G1
E-760,5-Ethylhydantoin,"InChI=1S/C5H8N2O2/c1-2-3-4(8)7-5(9)6-3/h3H,2H2,1H3,(H2,6,7,8,9)",RSBRXBZGVHQUJK-UHFFFAOYSA-N,CCC1NC(=O)NC1(=O),-0.06,0.0,1,G1
E-764,"4,5,7-Trichloro-2,1,3-benzothiadiazole",InChI=1S/C6HCl3N2S/c7-2-1-3(8)5-6(4(2)9)11-12-10-5/h1H,SZYWFOPNFNROQB-UHFFFAOYSA-N,c1c(Cl)c(Cl)c2nsnc2c1Cl,-4.98,0.0,1,G1
E-765,7-Chloropteridine,InChI=1S/C6H3ClN4/c7-5-2-9-6-4(11-5)1-8-3-10-6/h1-3H,YAVYBQFUSWPIQK-UHFFFAOYSA-N,c1c(Cl)nc2cncnc2n1,-0.87,0.12500000000000006,2,G3
E-766,Pteridine,InChI=1S/C6H4N4/c1-2-9-6-5(8-1)3-7-4-10-6/h1-4H,CPNGPNLZQNNVQM-UHFFFAOYSA-N,c1cnc2cncnc2n1,0.02,0.007000000000000001,2,G3
E-768,7-Mercaptopteridine,"InChI=1S/C6H4N4S/c11-5-2-8-6-4(10-5)1-7-3-9-6/h1-3H,(H,10,11)",LDLJGAYVPOULLZ-UHFFFAOYSA-N,c1c(S)nc2cncnc2n1,-2.71,0.0,1,G1
E-769,Urocanic_Acid,"InChI=1S/C6H6N2O2/c9-6(10)2-1-5-3-7-4-8-5/h1-4H,(H,7,8)(H,9,10)",LOIYMIARKYCTBW-UHFFFAOYSA-N,O=C(O)C=CC(N=CN1)=C1,-1.96,0.0,1,G1
E-770,1-Methyluric_Acid,"InChI=1S/C6H6N4O3/c1-10-4(11)2-3(9-6(10)13)8-5(12)7-2/h1H3,(H,9,13)(H2,7,8,12)",QFDRTQONISXGJA-UHFFFAOYSA-N,CN1C(=O)NC(NC2=O)=C(N2)C1=O,-1.56,0.0,1,G1
E-771,Isosorbide_Dinitrate,"InChI=1S/C6H8N2O8/c9-7(10)15-3-1-13-6-4(16-8(11)12)2-14-5(3)6/h3-6H,1-2H2",MOYKHGMNXAOIAT-UHFFFAOYSA-N,O=N(=O)OC(C(OCC1ON(=O)=O)C1O2)C2,-2.63,0.0,1,G1
E-772,Histidine,"InChI=1S/C6H9N3O2/c7-5(6(10)11)1-4-2-8-3-9-4/h2-3,5H,1,7H2,(H,8,9)(H,10,11)",HNDVDQJCIGZPNO-UHFFFAOYSA-N,O=C(O)C(N)CC(N=CN1)=C1,-0.53,0.0,1,G1
E-773,Allicin,"InChI=1S/C6H10OS2/c1-3-5-8-9(7)6-4-2/h3-4H,1-2,5-6H2",JDLKFOPOAOFWQN-UHFFFAOYSA-N,C=CCS(=O)SCC=C,-0.83,0.0,1,G1
E-774,Daminozide,"InChI=1S/C6H12N2O3/c1-8(2)7-5(9)3-4-6(10)11/h3-4H2,1-2H3,(H,7,9)(H,10,11)",NOQGZXFMHARMLW-UHFFFAOYSA-N,CN(C)NC(=O)CCC(O)=O,-0.2,0.0,1,G1
E-775,d-Quercitol,"InChI=1S/C6H12O5/c7-2-1-3(8)5(10)6(11)4(2)9/h2-11H,1H2",IMPKVMRTXBRHRB-UHFFFAOYSA-N,OC1C(O)C(O)C(O)C(O)C1,-0.17,0.0,1,G1
E-777,n-Amyl_Carbamate,"InChI=1S/C6H13NO2/c1-2-3-4-5-9-6(7)8/h2-5H2,1H3,(H2,7,8)",MYDQAEQZZKVJSL-UHFFFAOYSA-N,NC(=O)OCCCCC,-1.47,0.0,1,G1
E-778,tert-Amyl_Carbamate,"InChI=1S/C6H13NO2/c1-6(2,3)4-9-5(7)8/h4H2,1-3H3,(H2,7,8)",AFQYFVWMIRMBAE-UHFFFAOYSA-N,NC(=O)OCC(C)(C)C,-0.8,0.0,1,G1
E-779,Sorbitol,"InChI=1S/C6H14O6/c7-1-3(9)5(11)6(12)4(10)2-8/h3-12H,1-2H2",FBPFZTCFMRRESA-UHFFFAOYSA-N,OCC(O)C(O)C(O)C(O)CO,1.09,0.5356596184845372,4,G4
E-780,Quintozene,InChI=1S/C6Cl5NO2/c7-1-2(8)4(10)6(12(13)14)5(11)3(1)9,LKPLKUMXSAEKID-UHFFFAOYSA-N,O=N(=O)c(c(c(c(c1Cl)Cl)Cl)Cl)c1Cl,-5.82,0.0,1,G1
E-781,Bromoxynil,"InChI=1S/C7H3Br2NO/c8-5-1-4(3-10)2-6(9)7(5)11/h1-2,11H",UPMXNNIRAGDFEH-UHFFFAOYSA-N,Oc1c(Br)cc(C#N)cc1Br,-3.33,0.0,1,G1
E-782,"3,5-Diiodosalicylic_Acid","InChI=1S/C7H4I2O3/c8-3-1-4(7(11)12)6(10)5(9)2-3/h1-2,10H,(H,11,12)",DHZVWQPHNWDCFS-UHFFFAOYSA-N,O=C(O)c(c(O)c(cc1I)I)c1,-3.31,0.0,1,G1
E-783,o-Iodobenzoic_Acid,"InChI=1S/C7H5IO2/c8-6-4-2-1-3-5(6)7(9)10/h1-4H,(H,9,10)",CJNZAXGUTKBIHP-UHFFFAOYSA-N,O=C(O)c(c(ccc1)I)c1,-2.73,0.15500000000000003,2,G3
E-786,7-Methylpteridine,"InChI=1S/C7H6N4/c1-5-2-9-7-6(11-5)3-8-4-10-7/h2-4H,1H3",IQCHKMQERZPOIJ-UHFFFAOYSA-N,c1c(C)nc2cncnc2n1,0.06,0.0,1,G1
E-787,4-Methoxypteridine,"InChI=1S/C7H6N4O/c1-12-7-10-4-5-6(11-7)9-3-2-8-5/h2-4H,1H3",NIKKSNUDXYPTRO-UHFFFAOYSA-N,c1cnc2cnc(OC)nc2n1,-1.11,0.0,1,G1
E-789,2-Methylthiopteridine,"InChI=1S/C7H6N4S/c1-12-7-5-6(10-4-11-7)9-3-2-8-5/h2-4H,1H3",XKENOTHGZDIXRS-UHFFFAOYSA-N,c1cnc2c(SC)ncnc2n1,-1.76,0.30500000000000005,2,G3
E-791,Salicylaldehyde,"InChI=1S/C7H6O2/c8-5-6-3-1-2-4-7(6)9/h1-5,9H",SMQUZDBALVYZAC-UHFFFAOYSA-N,O=Cc(c(O)ccc1)c1,-0.86,0.0,1,G1
E-792,Gallic_Acid,"InChI=1S/C7H6O5/c8-4-1-3(7(11)12)2-5(9)6(4)10/h1-2,8-10H,(H,11,12)",LNTHITQWFMADLM-UHFFFAOYSA-N,O=C(O)c(cc(O)c(O)c1O)c1,-1.16,0.0,1,G1
E-794,4-Phenylsemicarbazide,"InChI=1S/C7H9N3O/c8-10-7(11)9-6-4-2-1-3-5-6/h1-5H,8H2,(H2,9,10,11)",MOCKWYUCPREFCZ-UHFFFAOYSA-N,c1ccccc1NC(=O)NN,-2.33,0.0,1,G1
E-795,Sulfaguanidine,"InChI=1S/C7H10N4O2S/c8-5-1-3-6(4-2-5)14(12,13)11-7(9)10/h1-4H,8H2,(H4,9,10,11)",BRBKOPJOKNSWSG-UHFFFAOYSA-N,c1cc(N)ccc1S(=O)(=O)NC(=N)N,-1.99,0.0,1,G1
E-796,3-Methylcyclohexanone,"InChI=1S/C7H12O/c1-6-3-2-4-7(8)5-6/h6H,2-5H2,1H3",UJBOOUHRTQVGRU-UHFFFAOYSA-N,O=C(CCCC1C)C1,-1.87,0.0,1,G1
E-797,2-Methylcyclohexanone,"InChI=1S/C7H12O/c1-6-4-2-3-5-7(6)8/h6H,2-5H2,1H3",LFSAPCRASZRSKS-UHFFFAOYSA-N,C1CCCC(C)C1=O,-0.94,0.0,1,G1
E-798,n-Hexyl_Carbamate,"InChI=1S/C7H15NO2/c1-2-3-4-5-6-10-7(8)9/h2-6H2,1H3,(H2,8,9)",ROASJEHPZNKHOF-UHFFFAOYSA-N,NC(=O)OCCCCCC,-1.92,0.0,1,G1
E-799,Phthalic_Anhydride,InChI=1S/C8H4O3/c9-7-5-3-1-2-4-6(5)8(10)11-7/h1-4H,LGRFSURHDFAFJT-UHFFFAOYSA-N,O=C(OC(=O)c1cccc2)c12,-1.39,0.0050000000000000044,2,G3
E-800,Chlorfenac,"InChI=1S/C8H5Cl3O2/c9-5-1-2-6(10)8(11)4(5)3-7(12)13/h1-2H,3H2,(H,12,13)",QZXCCPZJCKEPSA-UHFFFAOYSA-N,O=C(O)Cc(c(ccc1Cl)Cl)c1Cl,-3.08,0.0,1,G1
E-802,Trifluoro-o-toluic_Acid,"InChI=1S/C8H5F3O2/c9-8(10,11)6-4-2-1-3-5(6)7(12)13/h1-4H,(H,12,13)",FBRJYBGLCHWYOE-UHFFFAOYSA-N,OC(=O)c1ccccc1C(F)(F)F,-1.6,0.0,1,G1
E-803,2-Chlorophenoxyacetic_Acid,"InChI=1S/C8H7ClO3/c9-6-3-1-2-4-7(6)12-5-8(10)11/h1-4H,5H2,(H,10,11)",OPQYFNRLWBWCST-UHFFFAOYSA-N,OC(=O)COc1ccccc1Cl,-2.16,0.0,1,G1
E-804,4-Chlorophenoxyacetic_Acid,"InChI=1S/C8H7ClO3/c9-6-1-3-7(4-2-6)12-5-8(10)11/h1-4H,5H2,(H,10,11)",SODPIMGUZLOIPE-UHFFFAOYSA-N,O=C(O)COc(ccc(c1)Cl)c1,-2.29,0.02499999999999991,2,G3
E-805,Chloramben_Methyl_Ester,"InChI=1S/C8H7Cl2NO2/c1-13-8(12)5-2-4(9)3-6(11)7(5)10/h2-3H,11H2,1H3",DTSSCQVCVYZGSI-UHFFFAOYSA-N,O=C(OC)c(c(c(N)cc1Cl)Cl)c1,-3.26,0.0,1,G1
E-806,Cyclohexanol_Acetate,"InChI=1S/C8H14O2/c1-7(9)10-8-5-3-2-4-6-8/h8H,2-6H2,1H3",YYLLIJHXUHJATK-UHFFFAOYSA-N,C1CCCCC1OC(=O)C,-1.67,0.0,1,G1
E-807,Vanillic_Acid,"InChI=1S/C8H8O4/c1-12-7-4-5(8(10)11)2-3-6(7)9/h2-4,9H,1H3,(H,10,11)",WKOLLVMJNQIZCI-UHFFFAOYSA-N,O=C(O)c(ccc(O)c1OC)c1,-2.05,0.0,1,G1
E-809,m-Aminoacetophenone,"InChI=1S/C8H9NO/c1-6(10)7-3-2-4-8(9)5-7/h2-5H,9H2,1H3",CKQHAYFOPRIUOM-UHFFFAOYSA-N,c1ccc(N)cc1C(=O)C,-1.28,0.0,1,G1
E-810,p-Aminoacetophenone,"InChI=1S/C8H9NO/c1-6(10)7-2-4-8(9)5-3-7/h2-5H,9H2,1H3",GPRYKVSEZCQIHD-UHFFFAOYSA-N,O=C(c(ccc(N)c1)c1)C,-1.61,0.20000000000000007,2,G3
E-811,"2,3-Xylenol","InChI=1S/C8H10O/c1-6-4-3-5-8(9)7(6)2/h3-5,9H,1-2H3",QWBBPBRQALCEIZ-UHFFFAOYSA-N,Oc(c(c(cc1)C)C)c1,-1.43,0.0,1,G1
E-812,"2,5-Xylenol","InChI=1S/C8H10O/c1-6-3-4-7(2)8(9)5-6/h3-5,9H,1-2H3",NKTOLZVEWDHZMU-UHFFFAOYSA-N,Oc(c(ccc1C)C)c1,-1.54,0.0,1,G1
E-813,"2,6-Xylenol","InChI=1S/C8H10O/c1-6-4-3-5-7(2)8(6)9/h3-5,9H,1-2H3",NXXYKOUNUYWIHA-UHFFFAOYSA-N,Oc(c(ccc1)C)c1C,-1.31,0.010000000000000009,2,G3
E-815,Endothall,"InChI=1S/C8H10O5/c9-7(10)5-3-1-2-4(13-3)6(5)8(11)12/h3-6H,1-2H2,(H,9,10)(H,11,12)",GXEKYRXVRROBEV-UHFFFAOYSA-N,O=C(O)C(C(C(=O)O)C(O1)CC2)C12,-0.27,0.0,1,G1
E-816,"N,N-Diallyldichloroacetamide","InChI=1S/C8H11Cl2NO/c1-3-5-11(6-4-2)8(12)7(9)10/h3-4,7H,1-2,5-6H2",YRMLFORXOOIJDR-UHFFFAOYSA-N,O=C(N(CC=C)CC=C)C(Cl)Cl,-1.62,0.0,1,G1
E-817,Chloralose,"InChI=1S/C8H11Cl3O6/c9-8(10,11)7-16-5-3(14)4(2(13)1-12)15-6(5)17-7/h2-7,12-14H,1H2",OJYGBLRPYBAHRT-UHFFFAOYSA-N,O(C(OC(C1O)C(O)CO)C1O2)C2C(Cl)(Cl)Cl,-1.84,0.0,1,G1
E-818,Phenylethanolamine,"InChI=1S/C8H11NO/c9-6-8(10)7-4-2-1-3-5-7/h1-5,8,10H,6,9H2",ULSIYEODSMZIPX-UHFFFAOYSA-N,OC(c(cccc1)c1)CN,-0.48,0.0,1,G1
E-819,2-Chloroallyl_Diethyldithiocarbamate,"InChI=1S/C8H14ClNS2/c1-4-10(5-2)8(11)12-6-7(3)9/h3-6H2,1-2H3",XJCLWVXTCRQIDI-UHFFFAOYSA-N,CCN(CC)C(=S)SCC(Cl)=C,-3.39,0.020000000000000018,2,G3
E-820,"2,4-Octadione","InChI=1S/C8H14O2/c1-3-4-5-8(10)6-7(2)9/h3-6H2,1-2H3",GJYXGIIWJFZCLN-UHFFFAOYSA-N,CCCCC(=O)CC(=O)C,-1.56,0.0,1,G1
E-821,"3-Propyl-2,4-pentadione","InChI=1S/C8H14O2/c1-4-5-8(6(2)9)7(3)10/h8H,4-5H2,1-3H3",AQGSZYZZVTYOMQ-UHFFFAOYSA-N,CC(=O)C(CCC)C(=O)C,-0.88,0.0,1,G1
E-822,"5,5-Dimethyl-2,4-hexadione","InChI=1S/C8H14O2/c1-6(9)5-7(10)8(2,3)4/h5H2,1-4H3",LCLCVVVHIPPHCG-UHFFFAOYSA-N,CC(C)(C)C(=O)CC(=O)C,-1.63,0.0,1,G1
E-823,Pelletierine,"InChI=1S/C8H15NO/c1-7(10)6-8-4-2-3-5-9-8/h8-9H,2-6H2,1H3",JEIZLWNUBXHADF-UHFFFAOYSA-N,N1CCCCC1CC(=O)C,-0.45,0.0,1,G1
E-824,Isocarbamid,"InChI=1S/C8H15N3O2/c1-6(2)5-10-8(13)11-4-3-9-7(11)12/h6H,3-5H2,1-2H3,(H,9,12)(H,10,13)",SBYAVOHNDJTVPA-UHFFFAOYSA-N,O=C1NCCN1C(=O)NCC(C)C,-2.15,0.0,1,G1
E-825,"1,1,3-Trimethylcyclopentane","InChI=1S/C8H16/c1-7-4-5-8(2,3)6-7/h7H,4-6H2,1-3H3",OBKHYUIZSOIEPG-UHFFFAOYSA-N,CC1(C)CC(C)CC1,-4.48,0.0,1,G1
E-826,"1,4-Dimethylcyclohexane","InChI=1S/C8H16/c1-7-3-5-8(2)6-4-7/h7-8H,3-6H2,1-2H3",QRMPKOFEUHIBNM-UHFFFAOYSA-N,CC1CCC(C)CC1,-4.47,0.0,1,G1
E-827,n-Propylcyclopentane,"InChI=1S/C8H16/c1-2-5-8-6-3-4-7-8/h8H,2-7H2,1H3",KDIAMAVWIJYWHN-UHFFFAOYSA-N,C1C(CCC)CCC1,-4.74,0.0,1,G1
E-829,n-Heptyl_Carbamate,"InChI=1S/C8H17NO2/c1-2-3-4-5-6-7-11-8(9)10/h2-7H2,1H3,(H2,9,10)",AXMPFOXRWZXZFA-UHFFFAOYSA-N,NC(=O)OCCCCCCC,-2.62,0.0,1,G1
E-830,"2-Ethyl-1,3-hexanediol","InChI=1S/C8H18O2/c1-3-5-8(10)7(4-2)6-9/h7-10H,3-6H2,1-2H3",RWLALWYNXFYRGW-UHFFFAOYSA-N,CCCC(O)C(CC)CO,-0.54,0.4234999999999999,2,G3
E-831,Methazole,"InChI=1S/C9H6Cl2N2O3/c1-12-8(14)13(16-9(12)15)5-2-3-6(10)7(11)4-5/h2-4H,1H3",LRUUNMYPIBZBQH-UHFFFAOYSA-N,CN2C(=O)ON(c1ccc(Cl)c(Cl)c1)C2=O,-2.82,1.2461557321975811,3,G4
E-832,Tricyclazole,"InChI=1S/C9H7N3S/c1-6-3-2-4-7-8(6)12-5-10-11-9(12)13-7/h2-5H,1H3",DQJCHOQLCLEDLL-UHFFFAOYSA-N,Cc1cccc2sc3nncn3c12,-2.07,0.0,1,G1
E-834,Atropic_Acid,"InChI=1S/C9H8O2/c1-7(9(10)11)8-5-3-2-4-6-8/h2-6H,1H2,(H,10,11)",ONPJWQSDZCGSQM-UHFFFAOYSA-N,c1ccccc1C(=C)C(=O)O,-2.06,0.0,1,G1
E-836,"3,5-Diiodotyrosine","InChI=1S/C9H9I2NO3/c10-5-1-4(2-6(11)8(5)13)3-7(12)9(14)15/h1-2,7,13H,3,12H2,(H,14,15)",NYPYHUZRZVSYKL-UHFFFAOYSA-N,O=C(C(Cc1cc(c(c(c1)I)O)I)N)O,-2.86,0.0,1,G1
E-837,Hydrocinnamic_Acid,"InChI=1S/C9H10O2/c10-9(11)7-6-8-4-2-1-3-5-8/h1-5H,6-7H2,(H,10,11)",XMIIGOLPHOKFCH-UHFFFAOYSA-N,O=C(O)CCc(cccc1)c1,-1.41,0.09999999999999998,2,G3
E-838,dl-Tropic_Acid,"InChI=1S/C9H10O3/c10-6-8(9(11)12)7-4-2-1-3-5-7/h1-5,8,10H,6H2,(H,11,12)",JACRWUWPXAESPB-UHFFFAOYSA-N,OCC(C(O)=O)c1ccccc1,-0.93,0.005250000000000032,2,G3
E-839,p-Aminopropiophenone,"InChI=1S/C9H11NO/c1-2-9(11)7-3-5-8(10)6-4-7/h3-6H,2,10H2,1H3",FSWXOANXOQPCFF-UHFFFAOYSA-N,O=C(c(ccc(N)c1)c1)CC,-2.63,0.0050000000000001155,2,G3
E-841,m-Tolyl_Methylcarbamate,"InChI=1S/C9H11NO2/c1-7-4-3-5-8(6-7)12-9(11)10-2/h3-6H,1-2H3,(H,10,11)",VOEYXMAFNDNNED-UHFFFAOYSA-N,O=C(Oc(cccc1C)c1)NC,-1.8,0.0,1,G1
E-843,l-Camphoronic_Acid,"InChI=1S/C9H14O6/c1-8(2,6(12)13)9(3,7(14)15)4-5(10)11/h4H2,1-3H3,(H,10,11)(H,12,13)(H,14,15)",MJCJFUJXVGIUOD-UHFFFAOYSA-N,OC(=O)CC(C)(C(=O)O)C(C)(C)C(=O)O,-0.29,0.0895,2,G3
E-844,Ecgonine,"InChI=1S/C9H15NO3/c1-10-5-2-3-6(10)8(9(12)13)7(11)4-5/h5-8,11H,2-4H2,1H3,(H,12,13)",PHMBVCPLDPDESM-UHFFFAOYSA-N,C1C(N2C)CC(O)C(C(=O)O)C2C1,-0.02,0.0,1,G1
E-845,Azelaic_Acid,"InChI=1S/C9H16O4/c10-8(11)6-4-2-1-3-5-7-9(12)13/h1-7H2,(H,10,11)(H,12,13)",BDJRBEYXGGNYIS-UHFFFAOYSA-N,O=C(O)CCCCCCCC(=O)O,-1.89,0.06500000000000006,2,G3
E-846,Thiofanox,"InChI=1S/C9H18N2O2S/c1-9(2,3)7(6-14-5)11-13-8(12)10-4/h6H2,1-5H3,(H,10,12)",FZSVSABTBYGOQH-UHFFFAOYSA-N,O=C(ON=C(C(C)(C)C)CSC)NC,-1.62,0.0,1,G1
E-847,n-Octyl_Carbamate,"InChI=1S/C9H19NO2/c1-2-3-4-5-6-7-8-12-9(10)11/h2-8H2,1H3,(H2,10,11)",YPNZTHVEMNUDND-UHFFFAOYSA-N,CCCCCCCCOC(=O)N,-3.3,0.0,1,G1
E-848,Chlordene,"InChI=1S/C10H6Cl6/c11-6-7(12)9(14)5-3-1-2-4(5)8(6,13)10(9,15)16/h1-2,4-5H,3H2",XCJXQCUJXDUNDN-UHFFFAOYSA-N,ClC1=C(Cl)C(Cl)(C2(Cl)Cl)C3CC=CC3C12Cl,-5.64,0.125,2,G3
E-849,1-Hydroxychlordene,"InChI=1S/C10H6Cl6O/c11-6-7(12)9(14)5-3(1-2-4(5)17)8(6,13)10(9,15)16/h1-5,17H",YQWCIPIEEBVRNY-UHFFFAOYSA-N,OC1C=CC2C1C3(Cl)C(=C(Cl)C2(Cl)C3(Cl)Cl)Cl,-5.46,0.0,1,G1
E-850,Brompyrazone,"InChI=1S/C10H8BrN3O/c11-9-8(12)6-13-14(10(9)15)7-4-2-1-3-5-7/h1-6H,12H2",ODNZLRLWXRXPOH-UHFFFAOYSA-N,O=C1C(Br)=C(N)C=NN1c2ccccc2,-3.12,0.0,1,G1
E-851,Captafol,"InChI=1S/C10H9Cl4NO2S/c11-9(12)10(13,14)18-15-7(16)5-3-1-2-4-6(5)8(15)17/h1-2,5-6,9H,3-4H2",JHRWWRDRBPCWTF-UHFFFAOYSA-N,ClC(Cl)C(Cl)(Cl)SN2C(=O)C1CC=CCC1C2=O,-5.4,0.0,1,G1
E-852,4-Hydroxy-2-methylquinoline,"InChI=1S/C10H9NO/c1-7-6-10(12)8-4-2-3-5-9(8)11-7/h2-6H,1H3,(H,11,12)",NWINIEGDLHHNLH-UHFFFAOYSA-N,c1ccc2c(O)cc(C)nc2c1,-1.2,0.0,1,G1
E-853,Chlorfenprop-methyl,"InChI=1S/C10H10Cl2O2/c1-14-10(13)9(12)6-7-2-4-8(11)5-3-7/h2-5,9H,6H2,1H3",YJKIALIXRCSISK-UHFFFAOYSA-N,COC(=O)C(Cl)Cc1ccc(Cl)cc1,-3.77,0.0,1,G1
E-855,Sulfapyrazine,"InChI=1S/C10H10N4O2S/c11-8-1-3-9(4-2-8)17(15,16)14-10-7-12-5-6-13-10/h1-7H,11H2,(H,13,14)",YEAICDDXRUOCKJ-UHFFFAOYSA-N,c1cc(N)ccc1S(=O)(=O)Nc2cnccn2,-3.7,0.0,1,G1
E-856,Meconin,"InChI=1S/C10H10O4/c1-12-7-4-3-6-5-14-10(11)8(6)9(7)13-2/h3-4H,5H2,1-2H3",ORFFGRQMMWVHIB-UHFFFAOYSA-N,COc1ccc2COC(=O)c2c1OC,-1.89,0.0,1,G1
E-859,Tranid,"InChI=1S/C10H12ClN3O2/c1-13-10(15)16-14-9-7-3-5(8(9)11)2-6(7)4-12/h5-8H,2-3H2,1H3,(H,13,15)",QCQPGRMMDFIQMB-UHFFFAOYSA-N,CNC(=O)ON=C1C(C2)C(C#N)CC2C1Cl,-2.08,0.0,1,G1
E-860,Quinethazone,"InChI=1S/C10H12ClN3O3S/c1-2-9-13-7-4-6(11)8(18(12,16)17)3-5(7)10(15)14-9/h3-4,9,13H,2H2,1H3,(H,14,15)(H2,12,16,17)",AGMMTXLNIQSRCG-UHFFFAOYSA-N,CCC2NC(=O)c1cc(c(Cl)cc1N2)S(N)(=O)=O,-3.29,0.0,1,G1
E-861,Bentazon,"InChI=1S/C10H12N2O3S/c1-7(2)12-10(13)8-5-3-4-6-9(8)11-16(12,14)15/h3-7,11H,1-2H3",ZOMSMJKLGFBRBS-UHFFFAOYSA-N,O=C(N(S(=O)(=O)Nc1cccc2)C(C)C)c12,-2.68,0.0,1,G1
E-862,Inosine,"InChI=1S/C10H12N4O5/c15-1-4-6(16)7(17)10(19-4)14-3-13-5-8(14)11-2-12-9(5)18/h2-4,6-7,10,15-17H,1H2,(H,11,12,18)",UGQMRVRMYYASKQ-UHFFFAOYSA-N,OCC1OC(C(O)C1O)n2cnc3C(=O)NC=Nc23,-1.23,0.0,1,G1
E-863,Anethole,"InChI=1S/C10H12O/c1-3-4-9-5-7-10(11-2)8-6-9/h3-8H,1-2H3",RUVINXPYWBROJD-UHFFFAOYSA-N,O(c(ccc(c1)C=CC)c1)C,-3.13,0.0,1,G1
E-866,Dyphylline,"InChI=1S/C10H14N4O4/c1-12-8-7(9(17)13(2)10(12)18)14(5-11-8)3-6(16)4-15/h5-6,15-16H,3-4H2,1-2H3",KSCFJBIXMNOVSH-UHFFFAOYSA-N,O=C(N(C(=O)C(N(C=N1)CC(O)CO)=C12)C)N2C,-0.17,0.14500000000000002,2,G3
E-867,"2,6-Diethylaniline","InChI=1S/C10H15N/c1-3-8-6-5-7-9(4-2)10(8)11/h5-7H,3-4,11H2,1-2H3",FOYHNROGBXVLLX-UHFFFAOYSA-N,Nc(c(ccc1)CC)c1CC,-2.35,0.0,1,G1
E-868,N-Phenyldiethanolamine,"InChI=1S/C10H15NO2/c12-8-6-11(7-9-13)10-4-2-1-3-5-10/h1-5,12-13H,6-9H2",OJPDDQSCZGTACX-UHFFFAOYSA-N,OCCN(c(cccc1)c1)CCO,-0.73,0.0,1,G1
E-870,Citral,"InChI=1S/C10H16O/c1-9(2)5-4-6-10(3)7-8-11/h5,7-8H,4,6H2,1-3H3",WTEVQBCEXWBHNA-UHFFFAOYSA-N,O=CC=C(CCC=C(C)C)C,-2.06,0.0,1,G1
E-871,l-Dihydrocarvone,"InChI=1S/C10H16O/c1-7(2)9-5-4-8(3)10(11)6-9/h8-9H,1,4-6H2,2-3H3",AZOCECCLWFDTAP-UHFFFAOYSA-N,O=C1C(C)CCC(C(C)=C)C1,-2.18,0.0,1,G1