ID,Name,InChI,InChIKey,SMILES,Solubility,SD,Occurrences,Group
C-1697,"5-phenyl-2,4-pentadienoic  acid","InChI=1S/C11H10O2/c12-11(13)9-5-4-8-10-6-2-1-3-7-10/h1-9H,(H,12,13)/b8-4+,9-5+",FEIQOMCWGDNMHM-KBXRYBNXSA-N,OC(=O)/C=C/C=C/C1=CC=CC=C1,-3.64,0.0,1,G1
C-1699,stanolone formate,"InChI=1S/C20H30O3/c1-19-9-7-14(22)11-13(19)3-4-15-16-5-6-18(23-12-21)20(16,2)10-8-17(15)19/h12-13,15-18H,3-11H2,1-2H3",ZQSXNBHXKJQHBH-UHFFFAOYSA-N,CC12CCC(=O)CC1CCC3C4CCC(OC=O)C4(C)CCC23,-5.32,0.0,1,G1
C-1700,1-ethoxy-4-isothiocyanatobenzene,"InChI=1S/C9H9NOS/c1-2-11-9-5-3-8(4-6-9)10-7-12/h3-6H,2H2,1H3",REEKOMRZYJXXNR-UHFFFAOYSA-N,CCOC1=CC=C(C=C1)N=C=S,-4.26,0.0,1,G1
C-1701,"methoxymethyl  2-cyhexen-1-yl-2,6-dimethylmalonurate","InChI=1S/C14H22N2O5/c1-14(12(18)21-9-20-3,10-7-5-4-6-8-10)11(17)16-13(19)15-2/h7H,4-6,8-9H2,1-3H3,(H2,15,16,17,19)",UZDLWQVGUQTYLF-UHFFFAOYSA-N,CNC(=O)NC(=O)C(C)(C(=O)OCOC)C1=CCCCC1,-2.42,0.0,1,G1
C-1703,n-hydroxymethyl-4-methoxybenzamide,"InChI=1S/C9H11NO3/c1-13-8-4-2-7(3-5-8)9(12)10-6-11/h2-5,11H,6H2,1H3,(H,10,12)",UFEJBJDMZBIZLV-UHFFFAOYSA-N,COC1=CC=C(C=C1)C(=O)NCO,-1.22,0.0,1,G1
C-1704,methyl 4-dimethylaminobenzoate;  4-dimethylaminobenzoic acid methyl ester,"InChI=1S/C10H13NO2/c1-11(2)9-6-4-8(5-7-9)10(12)13-3/h4-7H,1-3H3",DBQGARDMYOMOOS-UHFFFAOYSA-N,COC(=O)C1=CC=C(C=C1)N(C)C,-3.3,0.0,1,G1
C-1705,"(z)-3-chloro-(e)-3-phenylpropenoic acid (cis-cl, trans-c6h5)","InChI=1S/C9H7ClO2/c10-8(6-9(11)12)7-4-2-1-3-5-7/h1-6H,(H,11,12)/b8-6-",SYLUOHMELSXJDK-VURMDHGXSA-N,OC(=O)/C=C(Cl)/C1=CC=CC=C1,-2.77,0.0,1,G1
C-1706,n-hydroxymethyl-3-methoxybenzamide,"InChI=1S/C9H11NO3/c1-13-8-4-2-3-7(5-8)9(12)10-6-11/h2-5,11H,6H2,1H3,(H,10,12)",OVYQBYCEGNAQGH-UHFFFAOYSA-N,COC1=CC=CC(=C1)C(=O)NCO,-1.29,0.0,1,G1
C-1707,"3-(4-methyl-2,5-dioxo-2,5-dihydro-1h-pyrrol-3-yl)propanoic acid","InChI=1S/C8H9NO4/c1-4-5(2-3-6(10)11)8(13)9-7(4)12/h2-3H2,1H3,(H,10,11)(H,9,12,13)",ZAFOEDODWZIXMO-UHFFFAOYSA-N,CC1=C(CCC(O)=O)C(=O)NC1=O,-0.67,0.0,1,G1
C-1709,3-bromo-4-hydroxybenzaldehyde,"InChI=1S/C7H5BrO2/c8-6-3-5(4-9)1-2-7(6)10/h1-4,10H",UOTMHAOCAJROQF-UHFFFAOYSA-N,OC1=C(Br)C=C(C=O)C=C1,-2.18,0.0,1,G1
C-1710,4-hexylbenzoic acid,"InChI=1S/C13H18O2/c1-2-3-4-5-6-11-7-9-12(10-8-11)13(14)15/h7-10H,2-6H2,1H3,(H,14,15)",CPEPWESLFZVUEP-UHFFFAOYSA-N,CCCCCCC1=CC=C(C=C1)C(O)=O,-3.65,0.0,1,G1
C-1711,4-ethoxy-3-methoxybenzaldehyde,"InChI=1S/C10H12O3/c1-3-13-9-5-4-8(7-11)6-10(9)12-2/h4-7H,3H2,1-2H3",BERFDQAMXIBOHM-UHFFFAOYSA-N,CCOC1=C(OC)C=C(C=O)C=C1,-2.19,0.0,1,G1
C-1712,8-methylpurine,"InChI=1S/C6H6N4/c1-4-9-5-2-7-3-8-6(5)10-4/h2-3H,1H3,(H,7,8,9,10)",UZQYFLWZKIMYKS-UHFFFAOYSA-N,CC1=NC2=C([NH]1)C=NC=N2,-0.41,0.013549999999999979,2,G3
C-1713,4-bromophenyl  isothiocyanate;  4-isothiocyanatobromobenzene,InChI=1S/C7H4BrNS/c8-6-1-3-7(4-2-6)9-5-10/h1-4H,XQACWEBGSZBLRG-UHFFFAOYSA-N,BrC1=CC=C(C=C1)N=C=S,-4.27,0.0,1,G1
C-1715,6-methylpurine,"InChI=1S/C6H6N4/c1-4-5-6(9-2-7-4)10-3-8-5/h2-3H,1H3,(H,7,8,9,10)",SYMHUEFSSMBHJA-UHFFFAOYSA-N,CC1=NC=NC2=C1N=C[NH]2,0.17,0.0,1,G1
C-1716,"2,5-pyridinedicarboxylic  acid;  isocinchomeronic  acid","InChI=1S/C7H5NO4/c9-6(10)4-1-2-5(7(11)12)8-3-4/h1-3H,(H,9,10)(H,11,12)",LVPMIMZXDYBCDF-UHFFFAOYSA-N,OC(=O)C1=CN=C(C=C1)C(O)=O,-2.13,0.0,1,G1
C-1717,testosterone formate,"InChI=1S/C20H28O3/c1-19-9-7-14(22)11-13(19)3-4-15-16-5-6-18(23-12-21)20(16,2)10-8-17(15)19/h11-12,15-18H,3-10H2,1-2H3",LMUMOFOWZKACOU-UHFFFAOYSA-N,CC12CCC3C(CCC4=CC(=O)CCC34C)C1CCC2OC=O,-4.93,0.0,1,G1
C-1718,4-acetylphenyl  isothiocyanate;  1-acetyl-4-isothiocyanatobenzene,"InChI=1S/C9H7NOS/c1-7(11)8-2-4-9(5-3-8)10-6-12/h2-5H,1H3",KAKXOESNHIUYJT-UHFFFAOYSA-N,CC(=O)C1=CC=C(C=C1)N=C=S,-4.02,0.0,1,G1
C-1719,2-aminopurine,"InChI=1S/C5H5N5/c6-5-7-1-3-4(10-5)9-2-8-3/h1-2H,(H3,6,7,8,9,10)",MWBWWFOAEOYUST-UHFFFAOYSA-N,NC1=NC2=C(C=N1)N=C[NH]2,-1.21,0.0,1,G1
C-1720,8-aminopurine,"InChI=1S/C5H5N5/c6-5-9-3-1-7-2-8-4(3)10-5/h1-2H,(H3,6,7,8,9,10)",IKZRFGGARFKJOA-UHFFFAOYSA-N,NC1=NC2=C([NH]1)N=CN=C2,-2.43,0.0,1,G1
C-1721,2-mercaptocinnamic  acid;  2-mercapto-3-phenylpropenoic acid,"InChI=1S/C9H8O2S/c10-9(11)8(12)6-7-4-2-1-3-5-7/h1-6,12H,(H,10,11)/b8-6-",NAEHAPZYAHRUTE-VURMDHGXSA-N,OC(=O)/C(S)=C/C1=CC=CC=C1,-2.96,0.0,1,G1
C-1722,2-mercapto-3-phenylpropionic  acid;  2-mercapto-3-phenylpropanoic acid,"InChI=1S/C9H10O2S/c10-9(11)8(12)6-7-4-2-1-3-5-7/h1-5,8,12H,6H2,(H,10,11)",HGIOOMCLOWLFTJ-UHFFFAOYSA-N,OC(=O)C(S)CC1=CC=CC=C1,-1.56,0.0,1,G1
C-1723,"3,5-pyridinedicarboxylic  acid;  dinicotinic  acid","InChI=1S/C7H5NO4/c9-6(10)4-1-5(7(11)12)3-8-2-4/h1-3H,(H,9,10)(H,11,12)",MPFLRYZEEAQMLQ-UHFFFAOYSA-N,OC(=O)C1=CC(=CN=C1)C(O)=O,-2.22,0.0,1,G1
C-1724,"2,4-pyridinedicarboxylic  acid;  lutidinic  acid","InChI=1S/C7H5NO4/c9-6(10)4-1-2-8-5(3-4)7(11)12/h1-3H,(H,9,10)(H,11,12)",MJIVRKPEXXHNJT-UHFFFAOYSA-N,OC(=O)C1=CC(=NC=C1)C(O)=O,-1.83,0.0,1,G1
C-1725,2-purinone,"InChI=1S/C5H4N4O/c10-5-6-1-3-4(9-5)8-2-7-3/h1-2H,(H2,6,7,8,9,10)",CRIZPXKICGBNKG-UHFFFAOYSA-N,O=C1NC2=C(C=N1)N=C[NH]2,-1.72,0.0,1,G1
C-1726,8-purinone,"InChI=1S/C5H4N4O/c10-5-8-3-1-6-2-7-4(3)9-5/h1-2H,(H2,6,7,8,9,10)",YPDSIEMYVQERLJ-UHFFFAOYSA-N,O=C1NC2=C(N1)N=CN=C2,-1.52,0.0,1,G1
C-1727,4-(4-chlorophenoxy)butyric acid;  4-(4-chlorophenoxy)butanoic acid,"InChI=1S/C10H11ClO3/c11-8-3-5-9(6-4-8)14-7-1-2-10(12)13/h3-6H,1-2,7H2,(H,12,13)",SIYAHZSHQIPQLY-UHFFFAOYSA-N,OC(=O)CCCOC1=CC=C(Cl)C=C1,-3.29,0.0,1,G1
C-1729,"2,3-pyridinedicarboxylic  acid;  quinolinic  acid","InChI=1S/C7H5NO4/c9-6(10)4-2-1-3-8-5(4)7(11)12/h1-3H,(H,9,10)(H,11,12)",GJAWHXHKYYXBSV-UHFFFAOYSA-N,OC(=O)C1=CC=CN=C1C(O)=O,-1.48,0.14900000000000002,2,G3
C-1730,n-piperidin-1-ylmethylbenzamide,"InChI=1S/C13H18N2O/c16-13(12-7-3-1-4-8-12)14-11-15-9-5-2-6-10-15/h1,3-4,7-8H,2,5-6,9-11H2,(H,14,16)",ATCWBLHLEMDUCP-UHFFFAOYSA-N,O=C(NCN1CCCCC1)C2=CC=CC=C2,-2.15,0.0,1,G1
C-1731,4-acetylphenyl acetate;  acetic acid 4-acetylphenyl ester;  4-acetoxyacetophenone,"InChI=1S/C10H10O3/c1-7(11)9-3-5-10(6-4-9)13-8(2)12/h3-6H,1-2H3",SMIOEQSLJNNKQF-UHFFFAOYSA-N,CC(=O)OC1=CC=C(C=C1)C(C)=O,-1.52,0.0,1,G1
C-1732,"norazine;  2-chloro-4-methylamino-6-isopropylamino-1,3,5-triazine","InChI=1S/C7H12ClN5/c1-4(2)10-7-12-5(8)11-6(9-3)13-7/h4H,1-3H3,(H2,9,10,11,12,13)",KLJYRZOFJHYOCO-UHFFFAOYSA-N,CNC1=NC(=NC(=N1)Cl)NC(C)C,-2.89,0.0,1,G1
C-1733,"chloroneb; demosan; 1,4-dichloro-2,5-dimethoxybenzene","InChI=1S/C8H8Cl2O2/c1-11-7-3-6(10)8(12-2)4-5(7)9/h3-4H,1-2H3",PFIADAMVCJPXSF-UHFFFAOYSA-N,COC1=CC(=C(OC)C=C1Cl)Cl,-4.41,0.0,1,G1
C-1734,4-acetoxybenzamide;  4-carbamoylphenyl  acetate,"InChI=1S/C9H9NO3/c1-6(11)13-8-4-2-7(3-5-8)9(10)12/h2-5H,1H3,(H2,10,12)",BFASOGCHMDYMBM-UHFFFAOYSA-N,CC(=O)OC1=CC=C(C=C1)C(N)=O,-1.64,0.0,1,G1
C-1735,1-acetyl-5-fluorouracil,"InChI=1S/C6H5FN2O3/c1-3(10)9-2-4(7)5(11)8-6(9)12/h2H,1H3,(H,8,11,12)",OVGDAVVFKDPXIC-UHFFFAOYSA-N,CC(=O)N1C=C(F)C(=O)NC1=O,-0.6,0.0,1,G1
C-1736,3-nitrophenyl  isothiocyanate;  3-isothiocyanatonitrobenzene,InChI=1S/C7H4N2O2S/c10-9(11)7-3-1-2-6(4-7)8-5-12/h1-4H,OEZXLKSZOAWNJU-UHFFFAOYSA-N,[O-][N+](=O)C1=CC=CC(=C1)N=C=S,-3.55,0.0,1,G1
C-1738,lithocholic  acid;  3alpha-hydroxy-5beta-cholanoic  acid,"InChI=1S/C24H40O3/c1-15(4-9-22(26)27)19-7-8-20-18-6-5-16-14-17(25)10-12-23(16,2)21(18)11-13-24(19,20)3/h15-21,25H,4-14H2,1-3H3,(H,26,27)",SMEROWZSTRWXGI-UHFFFAOYSA-N,CC(CCC(O)=O)C1CCC2C3CCC4CC(O)CCC4(C)C3CCC12C,-7.34,0.0,1,G1
C-1739,3-acetyl-5-fluorouracil,"InChI=1S/C6H5FN2O3/c1-3(10)9-5(11)4(7)2-8-6(9)12/h2H,1H3,(H,8,12)",JUZNVIUTDSYVKA-UHFFFAOYSA-N,CC(=O)N1C(=O)NC=C(F)C1=O,-0.6,0.0,1,G1
C-1740,7-alpha-hydroxy-5beta-cholanoic  acid,"InChI=1S/C24H40O3/c1-15(7-10-21(26)27)17-8-9-18-22-19(11-13-24(17,18)3)23(2)12-5-4-6-16(23)14-20(22)25/h15-20,22,25H,4-14H2,1-3H3,(H,26,27)",JVMCMMXFADJQKU-UHFFFAOYSA-N,CC(CCC(O)=O)C1CCC2C3C(O)CC4CCCCC4(C)C3CCC12C,-6.46,0.0,1,G1
C-1741,"chlorthiamid; 2,6-dichlorothiobenzamide","InChI=1S/C7H5Cl2NS/c8-4-2-1-3-5(9)6(4)7(10)11/h1-3H,(H2,10,11)",KGKGSIUWJCAFPX-UHFFFAOYSA-N,NC(=S)C1=C(Cl)C=CC=C1Cl,-2.34,0.0,1,G1
C-1742,"glyoxal  tetraacetate;  1,1,2,2-tetraacetoxyethane","InChI=1S/C10H14O8/c1-5(11)15-9(16-6(2)12)10(17-7(3)13)18-8(4)14/h9-10H,1-4H3",IXUDSZCEDKQCIV-UHFFFAOYSA-N,CC(=O)OC(OC(C)=O)C(OC(C)=O)OC(C)=O,-4.52,0.0,1,G1
C-1743,"1,3-diisothiocyanatobenzene",InChI=1S/C8H4N2S2/c11-5-9-7-2-1-3-8(4-7)10-6-12/h1-4H,BOLANQNHTGVOMY-UHFFFAOYSA-N,S=C=NC1=CC=CC(=C1)N=C=S,-4.7,0.0,1,G1
C-1745,"prasterone  acetate;  dehydroepiandrosterone  acetate; prasterone acetate; 5,6-dehydroisoandrosterone acetate","InChI=1S/C21H30O3/c1-13(22)24-15-8-10-20(2)14(12-15)4-5-16-17-6-7-19(23)21(17,3)11-9-18(16)20/h4,15-18H,5-12H2,1-3H3",NCMZQTLCXHGLOK-UHFFFAOYSA-N,CC(=O)OC1CCC2(C)C3CCC4(C)C(CCC4=O)C3CC=C2C1,-4.53,0.03500000000000014,2,G3
C-1746,2-[(3-hydroxyphenyl)hydrazono]malononitrile,"InChI=1S/C9H6N4O/c10-5-8(6-11)13-12-7-2-1-3-9(14)4-7/h1-4,12,14H",XPHHWVZARKXKST-UHFFFAOYSA-N,OC1=CC=CC(=C1)NN=C(C#N)C#N,-2.95,0.0,1,G1
C-1747,2-methoxypurine,"InChI=1S/C6H6N4O/c1-11-6-7-2-4-5(10-6)9-3-8-4/h2-3H,1H3,(H,7,8,9,10)",HKCXKNGHGLCFHK-UHFFFAOYSA-N,COC1=NC2=C([NH]C=N2)C=N1,-1.48,0.0,1,G1
C-1748,fenethcarb,"InChI=1S/C12H17NO2/c1-4-9-6-10(5-2)8-11(7-9)15-12(14)13-3/h6-8H,4-5H2,1-3H3,(H,13,14)",HUNDISMVCBSIKO-UHFFFAOYSA-N,CCC1=CC(=CC(=C1)OC(=O)NC)CC,-3.32,0.0,1,G1
C-1749,cystine,"InChI=1S/C6H12N2O4S2/c7-3(5(9)10)1-13-14-2-4(8)6(11)12/h3-4H,1-2,7-8H2,(H,9,10)(H,11,12)",LEVWYRKDKASIDU-UHFFFAOYSA-N,NC(CSSCC(N)C(O)=O)C(O)=O,-3.6,0.0,1,G1
C-1751,ethyl  vanillate; 4-hydroxy-3-methoxybenzoic acid ethyl ester; vanillic acid ethyl ester,"InChI=1S/C10H12O4/c1-3-14-10(12)7-4-5-8(11)9(6-7)13-2/h4-6,11H,3H2,1-2H3",MWAYRGBWOVHDDZ-UHFFFAOYSA-N,CCOC(=O)C1=CC(=C(O)C=C1)OC,-1.72,0.0,1,G1
C-1752,1-acetylamino-3-isothiocyanatobenzene,"InChI=1S/C9H8N2OS/c1-7(12)11-9-4-2-3-8(5-9)10-6-13/h2-5H,1H3,(H,11,12)",HLWVGQKSSIHUAX-UHFFFAOYSA-N,CC(=O)NC1=CC=CC(=C1)N=C=S,-3.53,0.0,1,G1
C-1753,6-methoxypurine,"InChI=1S/C6H6N4O/c1-11-6-4-5(8-2-7-4)9-3-10-6/h2-3H,1H3,(H,7,8,9,10)",GOILPRCCOREWQE-UHFFFAOYSA-N,COC1=NC=NC2=C1[NH]C=N2,-1.53,0.0,1,G1
C-1754,2-(2-chlorophenoxy)propanoic acid,"InChI=1S/C9H9ClO3/c1-6(9(11)12)13-8-5-3-2-4-7(8)10/h2-6H,1H3,(H,11,12)",ZGWNXHRVUJVMCP-UHFFFAOYSA-N,CC(OC1=CC=CC=C1Cl)C(O)=O,-2.22,0.0,1,G1
C-1755,8-hydroxymethylpurine,"InChI=1S/C6H6N4O/c11-2-5-9-4-1-7-3-8-6(4)10-5/h1,3,11H,2H2,(H,7,8,9,10)",NFZTXJKXCFQRGN-UHFFFAOYSA-N,OCC1=NC2=C([NH]1)C=NC=N2,-1.52,0.0,1,G1
C-1756,4-(methoxycarbonyl)acetanilide;  4-acetylaminobenzoic acid methyl ester,"InChI=1S/C10H11NO3/c1-7(12)11-9-5-3-8(4-6-9)10(13)14-2/h3-6H,1-2H3,(H,11,12)",QKWTXJSLAZKYGV-UHFFFAOYSA-N,COC(=O)C1=CC=C(NC(C)=O)C=C1,-1.9,0.0,1,G1
C-1758,7-methylpteridine,"InChI=1S/C7H6N4/c1-5-2-9-6-3-8-4-10-7(6)11-5/h2-4H,1H3",KOCYTWBTXZOUFS-UHFFFAOYSA-N,CC1=NC2=C(C=NC=N2)N=C1,-0.01,0.41458702611420717,3,G5
C-1761,hyodeoxycholic  acid,"InChI=1S/C24H40O4/c1-14(4-7-22(27)28)17-5-6-18-16-13-21(26)20-12-15(25)8-10-24(20,3)19(16)9-11-23(17,18)2/h14-21,25-26H,4-13H2,1-3H3,(H,27,28)",DGABKXLVXPYZII-UHFFFAOYSA-N,CC(CCC(O)=O)C1CCC2C3CC(O)C4CC(O)CCC4(C)C3CCC12C,-4.89,0.0,1,G1
C-1762,"4,6-di(isopropylamino)-1,3,5-triazine-2(1h)-one;   ""hydroxypropazine""","InChI=1S/C9H17N5O/c1-5(2)10-7-12-8(11-6(3)4)14-9(15)13-7/h5-6H,1-4H3,(H3,10,11,12,13,14,15)",RUOTUMSRCIMLJK-UHFFFAOYSA-N,CC(C)NC1=NC(=NC(=O)N1)NC(C)C,-2.81,0.0,1,G1
C-1763,2-[(4-chlorophenyl)hydrazono]malononitrile,"InChI=1S/C9H5ClN4/c10-7-1-3-8(4-2-7)13-14-9(5-11)6-12/h1-4,13H",LLQAOIITXFNWED-UHFFFAOYSA-N,ClC1=CC=C(NN=C(C#N)C#N)C=C1,-4.36,0.0,1,G1
C-1764,6-nitrophthalide,"InChI=1S/C8H5NO4/c10-8-7-3-6(9(11)12)2-1-5(7)4-13-8/h1-3H,4H2",RNWGZXAHUPFXLL-UHFFFAOYSA-N,[O-][N+](=O)C1=CC2=C(COC2=O)C=C1,-2.65,0.0,1,G1
C-1765,3-aminobenzenesulfonic acid * 1.5 h2o,"InChI=1S/C6H7NO3S/c7-5-2-1-3-6(4-5)11(8,9)10/h1-4H,7H2,(H,8,9,10)",ZAJAQTYSTDTMCU-UHFFFAOYSA-N,NC1=CC=CC(=C1)[S](O)(=O)=O,-1.48,0.0,1,G1
C-1766,stanolone  acetate,"InChI=1S/C21H32O3/c1-13(22)24-19-7-6-17-16-5-4-14-12-15(23)8-10-20(14,2)18(16)9-11-21(17,19)3/h14,16-19H,4-12H2,1-3H3",ILCTUFVQFCIIDS-UHFFFAOYSA-N,CC(=O)OC1CCC2C3CCC4CC(=O)CCC4(C)C3CCC12C,-5.35,0.0,1,G1
C-1767,"butane-1,2,3,4-tetracarboxylic  acid","InChI=1S/C8H10O8/c9-5(10)1-3(7(13)14)4(8(15)16)2-6(11)12/h3-4H,1-2H2,(H,9,10)(H,11,12)(H,13,14)(H,15,16)",GGAUUQHSCNMCAU-UHFFFAOYSA-N,OC(=O)CC(C(CC(O)=O)C(O)=O)C(O)=O,-0.18,0.0,1,G1
C-1768,4-hydroxyisophthalic  acid,"InChI=1S/C8H6O5/c9-6-2-1-4(7(10)11)3-5(6)8(12)13/h1-3,9H,(H,10,11)(H,12,13)",BCEQKAQCUWUNML-UHFFFAOYSA-N,OC(=O)C1=CC=C(O)C(=C1)C(O)=O,-1.78,0.5015,2,G2
C-1769,methyl 4-acetoxybenzoate;  4-acetoxybenzoic acid methyl ester,"InChI=1S/C10H10O4/c1-7(11)14-9-5-3-8(4-6-9)10(12)13-2/h3-6H,1-2H3",PGJQPLVEUVHSFQ-UHFFFAOYSA-N,COC(=O)C1=CC=C(OC(C)=O)C=C1,-2.5,0.0,1,G1
C-1771,prasterone  propionate,"InChI=1S/C22H32O3/c1-4-20(24)25-15-9-11-21(2)14(13-15)5-6-16-17-7-8-19(23)22(17,3)12-10-18(16)21/h5,15-18H,4,6-13H2,1-3H3",XECLXJZDYKMJFL-UHFFFAOYSA-N,CCC(=O)OC1CCC2(C)C3CCC4(C)C(CCC4=O)C3CC=C2C1,-4.69,0.0,1,G1
C-1772,7-aminopteridine,"InChI=1S/C6H5N5/c7-5-2-9-4-1-8-3-10-6(4)11-5/h1-3H,(H2,7,8,10,11)",KJVGXOHRFWZQJB-UHFFFAOYSA-N,NC1=NC2=C(C=NC=N2)N=C1,-2.31,0.0,1,G1
C-1773,6-aminopteridine,"InChI=1S/C6H5N5/c7-5-2-9-6-4(11-5)1-8-3-10-6/h1-3H,(H2,7,11)",YJYIDNNTUMEKSG-UHFFFAOYSA-N,NC1=NC2=C(N=CN=C2)N=C1,-2.34,0.0,1,G1
C-1774,2-aminopteridine,"InChI=1S/C6H5N5/c7-6-10-3-4-5(11-6)9-2-1-8-4/h1-3H,(H2,7,9,10,11)",HYCZDWGCJOEHBO-UHFFFAOYSA-N,NC1=NC2=C(C=N1)N=CC=N2,-2.3,0.0,1,G1
C-1775,n-butanoyl-n'-isonicotinoylhydrazine,"InChI=1S/C10H13N3O2/c1-2-3-9(14)12-13-10(15)8-4-6-11-7-5-8/h4-7H,2-3H2,1H3,(H,12,14)(H,13,15)",CHJCAPPVUWJTCJ-UHFFFAOYSA-N,CCCC(=O)NNC(=O)C1=CC=NC=C1,-0.32,0.0,1,G1
C-1776,"1-fluoro-2,4-dinitrobenzene",InChI=1S/C6H3FN2O4/c7-5-2-1-4(8(10)11)3-6(5)9(12)13/h1-3H,LOTKRQAVGJMPNV-UHFFFAOYSA-N,[O-][N+](=O)C1=CC(=C(F)C=C1)[N+]([O-])=O,-2.67,0.0,1,G1
C-1777,4-ureidophenyl  acetate;  acetic acid 4-ureidophenyl ester,"InChI=1S/C9H10N2O3/c1-6(12)14-8-4-2-7(3-5-8)11-9(10)13/h2-5H,1H3,(H3,10,11,13)",RHNWGZJHWWJART-UHFFFAOYSA-N,CC(=O)OC1=CC=C(NC(N)=O)C=C1,-2.49,0.0,1,G1
C-1778,"2-hydroxyisophthalic acid; 2-hydroxy-1,3-benzenedicarboxylic acid","InChI=1S/C8H6O5/c9-6-4(7(10)11)2-1-3-5(6)8(12)13/h1-3,9H,(H,10,11)(H,12,13)",WVDGHGISNBRCAO-UHFFFAOYSA-N,OC(=O)C1=C(O)C(=CC=C1)C(O)=O,-2.11,0.0,1,G1
C-1779,"monalide;  4-chloro-n-(2,2-dimethyl-2-propyl)acetanilide; 4'-chloro-2,2-dimethylpentanoylanilide","InChI=1S/C13H18ClNO/c1-4-9-13(2,3)12(16)15-11-7-5-10(14)6-8-11/h5-8H,4,9H2,1-3H3,(H,15,16)",KXGYBSNVFXBPNO-UHFFFAOYSA-N,CCCC(C)(C)C(=O)NC1=CC=C(Cl)C=C1,-4.02,0.0,1,G1
C-1780,"2,6-diaminopurine","InChI=1S/C5H6N6/c6-3-2-4(9-1-8-2)11-5(7)10-3/h1H,(H5,6,7,8,9,10,11)",MSSXOMSJDRHRMC-UHFFFAOYSA-N,NC1=NC2=C(N=C[NH]2)C(=N1)N,-1.8,0.0,1,G1
C-1781,"4-diethylamino-6-ethylamino-1,3,5-triazine-2(1h)-one;   ""hydroxytrietazine""","InChI=1S/C9H17N5O/c1-4-10-7-11-8(13-9(15)12-7)14(5-2)6-3/h4-6H2,1-3H3,(H2,10,11,12,13,15)",XLEPYYLPBFNICY-UHFFFAOYSA-N,CCNC1=NC(=NC(=O)N1)N(CC)CC,-3.64,0.0,1,G1
C-1782,3-iodophenyl  isothiocyanate;  3-isothiocyanatoiodobenzene,InChI=1S/C7H4INS/c8-6-2-1-3-7(4-6)9-5-10/h1-4H,LKCSXVAACHUTGC-UHFFFAOYSA-N,IC1=CC=CC(=C1)N=C=S,-4.68,0.0,1,G1
C-1783,4-aminopteridine,"InChI=1S/C6H5N5/c7-5-4-6(11-3-10-5)9-2-1-8-4/h1-3H,(H2,7,9,10,11)",VFATYAVSACUHHG-UHFFFAOYSA-N,NC1=NC=NC2=C1N=CC=N2,-2.31,0.0,1,G1
C-1786,7-pteridinone;  8h-pteridin-7-one,"InChI=1S/C6H4N4O/c11-5-2-8-4-1-7-3-9-6(4)10-5/h1-3H,(H,7,9,10,11)",OOIPDYWPGUHUJW-UHFFFAOYSA-N,O=C1NC2=C(C=NC=N2)N=C1,-2.12,0.0,1,G1
C-1787,6-pteridinone;  5h-pteridin-6-one,"InChI=1S/C6H4N4O/c11-5-2-8-6-4(10-5)1-7-3-9-6/h1-3H,(H,10,11)",ZUPDDKRJOMELAZ-UHFFFAOYSA-N,O=C1NC2=C(N=CN=C2)N=C1,-2.71,0.0,1,G1
C-1788,chlorbufam;  1-butyn-3-yl 3-chlorophenylcarbamate,"InChI=1S/C11H10ClNO2/c1-3-8(2)15-11(14)13-10-6-4-5-9(12)7-10/h1,4-8H,2H3,(H,13,14)",ULBXWWGWDPVHAO-UHFFFAOYSA-N,CC(OC(=O)NC1=CC(=CC=C1)Cl)C#C,-2.62,0.0,1,G1
C-1789,2-pteridinone,"InChI=1S/C6H4N4O/c11-6-9-3-4-5(10-6)8-2-1-7-4/h1-3H,(H,8,9,10,11)",VWXIHLCLIOQWRA-UHFFFAOYSA-N,O=C1NC2=C(C=N1)N=CC=N2,-2.0,0.02650000000000008,2,G3
C-1790,3-hydroxyphthalic acid,"InChI=1S/C8H6O5/c9-5-3-1-2-4(7(10)11)6(5)8(12)13/h1-3,9H,(H,10,11)(H,12,13)",MNUOZFHYBCRUOD-UHFFFAOYSA-N,OC(=O)C1=CC=CC(=C1C(O)=O)O,-2.11,0.0,1,G1
C-1791,4-ethoxycarbonylphenyl isothiocyanate;  4-isothiocyanatobenzoic acid ethyl ester,"InChI=1S/C10H9NO2S/c1-2-13-10(12)8-3-5-9(6-4-8)11-7-14/h3-6H,2H2,1H3",MLOJHUCMCKBDLV-UHFFFAOYSA-N,CCOC(=O)C1=CC=C(C=C1)N=C=S,-4.05,0.0,1,G1
C-1792,"2-chloro-4-isopropylamino-6-propylamino-1,3,5-triazine","InChI=1S/C9H16ClN5/c1-4-5-11-8-13-7(10)14-9(15-8)12-6(2)3/h6H,4-5H2,1-3H3,(H2,11,12,13,14,15)",ZVPGYHKLHJKWML-UHFFFAOYSA-N,CCCNC1=NC(=NC(=N1)Cl)NC(C)C,-3.74,0.0,1,G1
C-1793,isoguanine;  6-amino-3h-purin-2-one,"InChI=1S/C5H5N5O/c6-3-2-4(8-1-7-2)10-5(11)9-3/h1H,(H4,6,7,8,9,10,11)",DRAVOWXCEBXPTN-UHFFFAOYSA-N,NC1=NC(=O)NC2=C1N=C[NH]2,-3.38,0.010500000000000176,2,G3
C-1794,"purine-2,8-dione","InChI=1S/C5H4N4O2/c10-4-6-1-2-3(8-4)9-5(11)7-2/h1H,(H3,6,7,8,9,10,11)",PRUGQYWGIVNHEM-UHFFFAOYSA-N,O=C1NC2=C(N1)C=NC(=O)N2,-3.6,0.0,1,G1
C-1795,4-pteridinone;  3h-pteridin-4-one,"InChI=1S/C6H4N4O/c11-6-4-5(9-3-10-6)8-2-1-7-4/h1-3H,(H,8,9,10,11)",UWWUXWWWOUNMKW-UHFFFAOYSA-N,O=C1NC=NC2=C1N=CC=N2,-1.47,0.0,1,G1
C-1796,prynachlor; propynachlor;  2-chloro-n-(1-methyl-2-propynyl)acetanilide,"InChI=1S/C12H12ClNO/c1-3-10(2)14(12(15)9-13)11-7-5-4-6-8-11/h1,4-8,10H,9H2,2H3",DGPBHERUGBOSFZ-UHFFFAOYSA-N,CC(C#C)N(C(=O)CCl)C1=CC=CC=C1,-2.65,0.0,1,G1
C-1797,"2,4,5-trichlorobenzoic  acid","InChI=1S/C7H3Cl3O2/c8-4-2-6(10)5(9)1-3(4)7(11)12/h1-2H,(H,11,12)",PTFNNDHASFGWFI-UHFFFAOYSA-N,OC(=O)C1=C(Cl)C=C(Cl)C(=C1)Cl,-2.45,0.0,1,G1
C-1798,"2,3'-dipyridyl;  2,3'-bipyridine;  2,3'-bipyridinyl",InChI=1S/C10H8N2/c1-2-7-12-10(5-1)9-4-3-6-11-8-9/h1-8H,VEKIYFGCEAJDDT-UHFFFAOYSA-N,C1=CC=C(N=C1)C2=CN=CC=C2,-0.59,0.0,1,G1
C-1799,"3,5-dichlorophenoxyacetic acid","InChI=1S/C8H6Cl2O3/c9-5-1-6(10)3-7(2-5)13-4-8(11)12/h1-3H,4H2,(H,11,12)",LXWGIMHMQOCPCR-UHFFFAOYSA-N,OC(=O)COC1=CC(=CC(=C1)Cl)Cl,-2.36,0.0,1,G1
C-1800,"purine-6,8-dione","InChI=1S/C5H4N4O2/c10-4-2-3(6-1-7-4)9-5(11)8-2/h1H,(H3,6,7,8,9,10,11)",BYUOBSUZYQAFJM-UHFFFAOYSA-N,O=C1NC2=C(N1)C(=O)NC=N2,-2.96,0.0,1,G1
C-1801,"4-benzoyloxy-n,n(dimethyl)butyramide;  4-benzoyloxy-n,n-dimethylbutanoic acid amide","InChI=1S/C13H17NO3/c1-14(2)12(15)9-6-10-17-13(16)11-7-4-3-5-8-11/h3-5,7-8H,6,9-10H2,1-2H3",FNROXVCRPXYLRT-UHFFFAOYSA-N,CN(C)C(=O)CCCOC(=O)C1=CC=CC=C1,-1.23,0.0,1,G1
C-1802,acetylmandelic acid (rac.);  alpha-acetoxyphenylacetic (rac.),"InChI=1S/C10H10O4/c1-7(11)14-9(10(12)13)8-5-3-2-4-6-8/h2-6,9H,1H3,(H,12,13)",OBCUSTCTKLTMBX-UHFFFAOYSA-N,CC(=O)OC(C(O)=O)C1=CC=CC=C1,-1.23,0.0,1,G1
C-1803,"2,5-dichlorophenoxyacetic acid","InChI=1S/C8H6Cl2O3/c9-5-1-2-6(10)7(3-5)13-4-8(11)12/h1-3H,4H2,(H,11,12)",YVPLLFUCNGVUAY-UHFFFAOYSA-N,OC(=O)COC1=C(Cl)C=CC(=C1)Cl,-2.62,0.0,1,G1
C-1804,"2,3-dichlorophenoxyacetic acid","InChI=1S/C8H6Cl2O3/c9-5-2-1-3-6(8(5)10)13-4-7(11)12/h1-3H,4H2,(H,11,12)",RBJIGQRZLITQJG-UHFFFAOYSA-N,OC(=O)COC1=C(Cl)C(=CC=C1)Cl,-2.81,0.0,1,G1
C-1806,"chelidonic acid; 4-oxo-4h-pyran-2,6-dicarboxylic acid","InChI=1S/C7H4O6/c8-3-1-4(6(9)10)13-5(2-3)7(11)12/h1-2H,(H,9,10)(H,11,12)",PBAYDYUZOSNJGU-UHFFFAOYSA-N,OC(=O)C1=CC(=O)C=C(O1)C(O)=O,-1.11,0.0,1,G1
C-1807,"2,6-dichlorophenoxyacetic  acid","InChI=1S/C8H6Cl2O3/c9-5-2-1-3-6(10)8(5)13-4-7(11)12/h1-3H,4H2,(H,11,12)",KHZWIIFEFQBNKL-UHFFFAOYSA-N,OC(=O)COC1=C(Cl)C=CC=C1Cl,-2.15,0.0,1,G1
C-1808,"6-dimethylaminopurine;  n6,n6-dimethyladenine","InChI=1S/C7H9N5/c1-12(2)7-5-6(9-3-8-5)10-4-11-7/h3-4H,1-2H3,(H,8,9,10,11)",BVIAOQMSVZHOJM-UHFFFAOYSA-N,CN(C)C1=NC=NC2=C1N=C[NH]2,-1.3,0.0,1,G1
C-1810,n-isonicotinoyl-n'-pentanoylhydrazine,"InChI=1S/C11H15N3O2/c1-2-3-4-10(15)13-14-11(16)9-5-7-12-8-6-9/h5-8H,2-4H2,1H3,(H,13,15)(H,14,16)",VVQCYROSLKFIKX-UHFFFAOYSA-N,CCCCC(=O)NNC(=O)C1=CC=NC=C1,-1.01,0.0,1,G1
C-1813,"fitios;  o,o-dimethyl s-[(n-ethyl)carbamoylmethyl]dithiophosphate","InChI=1S/C6H14NO3PS2/c1-4-7-6(8)5-13-11(12,9-2)10-3/h4-5H2,1-3H3,(H,7,8)",DICRHEJCQXFJBY-UHFFFAOYSA-N,CCNC(=O)CS[P](=S)(OC)OC,-1.46,0.0,1,G1
C-1814,3-butyryl-5-fluorouracil,"InChI=1S/C8H9FN2O3/c1-2-3-6(12)11-7(13)5(9)4-10-8(11)14/h4H,2-3H2,1H3,(H,10,14)",SHSQCPXGYRPQDR-UHFFFAOYSA-N,CCCC(=O)N1C(=O)NC=C(F)C1=O,-1.28,0.0,1,G1