ID,Name,InChI,InChIKey,SMILES,Solubility,SD,Occurrences,Group
C-688,"5,6-dihydro-2-sulfamoylthieno[2,3-b]thiopyran-4-one","InChI=1S/C7H7NO3S3/c8-14(10,11)6-3-4-5(9)1-2-12-7(4)13-6/h3H,1-2H2,(H2,8,10,11)",WKLCYOHFTPREOW-UHFFFAOYSA-N,N[S](=O)(=O)C1=CC2=C(SCCC2=O)S1,-3.55,0.0,1,G1
C-689,"5,6-dihydro-2-sulfamoylthieno[3,2-b]thiopyran-7-one","InChI=1S/C7H7NO3S3/c8-14(10,11)6-3-5-7(13-6)4(9)1-2-12-5/h3H,1-2H2,(H2,8,10,11)",AIVXUNRQBRKFJO-UHFFFAOYSA-N,N[S](=O)(=O)C1=CC2=C(S1)C(=O)CCS2,-3.49,0.0,1,G1
C-690,"7-hydroxy-6,7-dihydro-5h-2-sulfamoylthieno[3,2-b]thiopyran","InChI=1S/C7H9NO3S3/c8-14(10,11)6-3-5-7(13-6)4(9)1-2-12-5/h3-4,9H,1-2H2,(H2,8,10,11)",UGQVTTBSGZLNIL-UHFFFAOYSA-N,N[S](=O)(=O)C1=CC2=C(S1)C(O)CCS2,-2.25,0.0,1,G1
C-692,1-(4-methylphenylsulfonyl)cyclohexanecarboxylic acid isopropyl ester,"InChI=1S/C17H24O4S/c1-13(2)21-16(18)17(11-5-4-6-12-17)22(19,20)15-9-7-14(3)8-10-15/h7-10,13H,4-6,11-12H2,1-3H3",IXSGKTPWQQPRAU-UHFFFAOYSA-N,CC(C)OC(=O)C1(CCCCC1)[S](=O)(=O)C2=CC=C(C)C=C2,-4.62,0.0,1,G1
C-694,"anilazine;  2,4-dichloro-6-(2-chlorophenylamino)-1,3,5-triazine","InChI=1S/C9H5Cl3N4/c10-5-3-1-2-4-6(5)13-9-15-7(11)14-8(12)16-9/h1-4H,(H,13,14,15,16)",IMHBYKMAHXWHRP-UHFFFAOYSA-N,ClC1=NC(=NC(=N1)NC2=CC=CC=C2Cl)Cl,-4.54,0.0,1,G1
C-695,2-amino-1-naphthalenesulfonic acid; tobias acid,"InChI=1S/C10H9NO3S/c11-9-6-5-7-3-1-2-4-8(7)10(9)15(12,13)14/h1-6H,11H2,(H,12,13,14)",GWIAAIUASRVOIA-UHFFFAOYSA-N,NC1=C(C2=CC=CC=C2C=C1)[S](O)(=O)=O,-1.7,0.0,1,G1
C-697,phenothiazine,"InChI=1S/C12H9NS/c1-3-7-11-9(5-1)13-10-6-2-4-8-12(10)14-11/h1-8,13H",WJFKNYWRSNBZNX-UHFFFAOYSA-N,N1C2=C(SC3=CC=CC=C13)C=CC=C2,-5.1,0.0,1,G1
C-700,"3-(1-aziridinyl)-4,6-dinitro-(n,n-dimethyl)benzamide","InChI=1S/C11H12N4O5/c1-12(2)11(16)7-5-9(13-3-4-13)10(15(19)20)6-8(7)14(17)18/h5-6H,3-4H2,1-2H3",JORNJVDPZHKPNJ-UHFFFAOYSA-N,CN(C)C(=O)C1=CC(=C(C=C1[N+]([O-])=O)[N+]([O-])=O)N2CC2,-2.48,0.0,1,G1
C-701,1-(4-chlorophenylsulfonyl)cyclopentanecarboxylic acid isopropyl ester,"InChI=1S/C15H19ClO4S/c1-11(2)20-14(17)15(9-3-4-10-15)21(18,19)13-7-5-12(16)6-8-13/h5-8,11H,3-4,9-10H2,1-2H3",AWDYZLGQTRYRJA-UHFFFAOYSA-N,CC(C)OC(=O)C1(CCCC1)[S](=O)(=O)C2=CC=C(Cl)C=C2,-4.65,0.0,1,G1
C-702,"3,4,4',5-tetrachlorobiphenyl",InChI=1S/C12H6Cl4/c13-9-3-1-7(2-4-9)8-5-10(14)12(16)11(15)6-8/h1-6H,BHWVLZJTVIYLIV-UHFFFAOYSA-N,ClC1=CC=C(C=C1)C2=CC(=C(Cl)C(=C2)Cl)Cl,-7.96,0.0,1,G1
C-706,"2,4,4',5-tetrachlorobiphenyl",InChI=1S/C12H6Cl4/c13-8-3-1-7(2-4-8)9-5-11(15)12(16)6-10(9)14/h1-6H,TULCXSBAPHCWCF-UHFFFAOYSA-N,ClC1=CC=C(C=C1)C2=C(Cl)C=C(Cl)C(=C2)Cl,-7.77,0.0,1,G1
C-707,tolclofos-methyl,"InChI=1S/C9H11Cl2O3PS/c1-6-4-7(10)9(8(11)5-6)14-15(16,12-2)13-3/h4-5H,1-3H3",OBZIQQJJIKNWNO-UHFFFAOYSA-N,CO[P](=S)(OC)OC1=C(Cl)C=C(C)C=C1Cl,-5.44,0.21850000000000014,2,G3
C-708,"diflunisal;  1-carboxy-2-hydroxy-2',4'-difluorobiphenyl","InChI=1S/C13H8F2O3/c14-8-2-3-9(11(15)6-8)7-1-4-12(16)10(5-7)13(17)18/h1-6,16H,(H,17,18)",HUPFGZXOMWLGNK-UHFFFAOYSA-N,OC(=O)C1=CC(=CC=C1O)C2=C(F)C=C(F)C=C2,-4.61,0.0,1,G1
C-709,"3,3',5,5'-tetrachlorobiphenyl",InChI=1S/C12H6Cl4/c13-9-1-7(2-10(14)5-9)8-3-11(15)6-12(16)4-8/h1-6H,UTMWFJSRHLYRPY-UHFFFAOYSA-N,ClC1=CC(=CC(=C1)C2=CC(=CC(=C2)Cl)Cl)Cl,-8.38,0.07999999999999918,2,G3
C-711,2-chlorodibenzodioxin,InChI=1S/C12H7ClO2/c13-8-5-6-11-12(7-8)15-10-4-2-1-3-9(10)14-11/h1-7H,GIUGGRUEPHPVNR-UHFFFAOYSA-N,ClC1=CC2=C(OC3=C(O2)C=CC=C3)C=C1,-5.84,0.015000000000000124,2,G3
C-713,"2,3',4',5-tetrachlorobiphenyl",InChI=1S/C12H6Cl4/c13-8-2-4-10(14)9(6-8)7-1-3-11(15)12(16)5-7/h1-6H,KENZYIHFBRWMOD-UHFFFAOYSA-N,ClC1=CC(=C(Cl)C=C1)C2=CC=C(Cl)C(=C2)Cl,-6.85,0.20000000000000018,2,G3
C-714,1-(4-bromophenylsulfonyl)cyclopentanecarboxylic acid methyl ester,"InChI=1S/C13H15BrO4S/c1-18-12(15)13(8-2-3-9-13)19(16,17)11-6-4-10(14)5-7-11/h4-7H,2-3,8-9H2,1H3",GTCWZRDSJBFIDT-UHFFFAOYSA-N,COC(=O)C1(CCCC1)[S](=O)(=O)C2=CC=C(Br)C=C2,-4.01,0.0,1,G1
C-717,"dcpa;  chlorthal-dimethyl;  2,3,5,6-tetrachloro-1,4-benzenedicarboxylic acid dimethyl ester",InChI=1S/C10H6Cl4O4/c1-17-9(15)3-5(11)7(13)4(10(16)18-2)8(14)6(3)12/h1-2H3,NPOJQCVWMSKXDN-UHFFFAOYSA-N,COC(=O)C1=C(Cl)C(=C(C(=C1Cl)Cl)C(=O)OC)Cl,-5.82,0.0,1,G1
C-718,"2,2',4,5'-tetrachlorobiphenyl",InChI=1S/C12H6Cl4/c13-7-2-4-11(15)10(5-7)9-3-1-8(14)6-12(9)16/h1-6H,ZWPVHELAQPIZHO-UHFFFAOYSA-N,ClC1=CC(=C(C=C1)C2=CC(=CC=C2Cl)Cl)Cl,-7.26,0.34499999999999975,2,G3
C-719,1-chlorodibenzodioxin,InChI=1S/C12H7ClO2/c13-8-4-3-7-11-12(8)15-10-6-2-1-5-9(10)14-11/h1-7H,VGGGRWRBGXENKI-UHFFFAOYSA-N,ClC1=CC=CC2=C1OC3=C(O2)C=CC=C3,-5.72,0.0,1,G1
C-720,"2,2',4,5-tetrachlorobiphenyl",InChI=1S/C12H6Cl4/c13-9-4-2-1-3-7(9)8-5-11(15)12(16)6-10(8)14/h1-6H,XBTHILIDLBPRPM-UHFFFAOYSA-N,ClC1=CC=CC=C1C2=C(Cl)C=C(Cl)C(=C2)Cl,-7.25,0.33999999999999986,2,G3
C-721,"2,2',5,5'-tetrachlorobiphenyl",InChI=1S/C12H6Cl4/c13-7-1-3-11(15)9(5-7)10-6-8(14)2-4-12(10)16/h1-6H,HCWZEPKLWVAEOV-UHFFFAOYSA-N,ClC1=CC(=C(Cl)C=C1)C2=CC(=CC=C2Cl)Cl,-7.04,0.12411553757151735,3,G5
C-723,"2,8-dichlorodibenzofuran",InChI=1S/C12H6Cl2O/c13-7-1-3-11-9(5-7)10-6-8(14)2-4-12(10)15-11/h1-6H,IVVRJIDVYSPKFZ-UHFFFAOYSA-N,ClC1=CC2=C(OC3=C2C=C(Cl)C=C3)C=C1,-7.21,0.0,1,G1
C-725,"2,2',3,4-tetrachlorobiphenyl",InChI=1S/C12H6Cl4/c13-9-4-2-1-3-7(9)8-5-6-10(14)12(16)11(8)15/h1-6H,SEWHDNLIHDBVDZ-UHFFFAOYSA-N,ClC1=C(Cl)C(=C(C=C1)C2=CC=CC=C2Cl)Cl,-6.83,0.0,1,G1
C-728,1-(4-nitrophenylsulfonyl)cyclopropanecarboxylic acid isopropyl ester,"InChI=1S/C13H15NO6S/c1-9(2)20-12(15)13(7-8-13)21(18,19)11-5-3-10(4-6-11)14(16)17/h3-6,9H,7-8H2,1-2H3",WUAIGAOSYROCOI-UHFFFAOYSA-N,CC(C)OC(=O)C1(CC1)[S](=O)(=O)C2=CC=C(C=C2)[N+]([O-])=O,-4.26,0.0,1,G1
C-731,entacapone,"InChI=1S/C14H15N3O5/c1-3-16(4-2)14(20)10(8-15)5-9-6-11(17(21)22)13(19)12(18)7-9/h5-7,18-19H,3-4H2,1-2H3/b10-5-",JRURYQJSLYLRLN-YHYXMXQVSA-N,CCN(CC)C(=O)\C(=C/C1=CC(=C(O)C(=C1)[N+]([O-])=O)O)C#N,-4.26,0.0,1,G1
C-732,probenecid,"InChI=1S/C13H19NO4S/c1-3-9-14(10-4-2)19(17,18)12-7-5-11(6-8-12)13(15)16/h5-8H,3-4,9-10H2,1-2H3,(H,15,16)",DBABZHXKTCFAPX-UHFFFAOYSA-N,CCCN(CCC)[S](=O)(=O)C1=CC=C(C=C1)C(O)=O,-5.68,0.0,1,G1
C-735,"3-aziridin-1-yl-2,4-dinitro-(n-cyclopropyl)benzamide","InChI=1S/C12H12N4O5/c17-12(13-7-1-2-7)8-5-10(14-3-4-14)11(16(20)21)6-9(8)15(18)19/h5-7H,1-4H2,(H,13,17)",JKLHHVBMBLUNBW-UHFFFAOYSA-N,[O-][N+](=O)C1=C(C=C(C(=O)NC2CC2)C(=C1)[N+]([O-])=O)N3CC3,-3.39,0.0,1,G1
C-738,"2,3,5,6-tetrachlorobiphenyl",InChI=1S/C12H6Cl4/c13-8-6-9(14)12(16)10(11(8)15)7-4-2-1-3-5-7/h1-6H,BLAYIQLVUNIICD-UHFFFAOYSA-N,ClC1=CC(=C(Cl)C(=C1Cl)C2=CC=CC=C2)Cl,-7.25,0.0,1,G1
C-742,methyl 1-(4-bromophenylsulfonyl)cyclohexane-1-carboxylate; 1-(4-bromophenylsulfonyl)cyclohexanecarboxylic acid methyl ester,"InChI=1S/C14H17BrO4S/c1-19-13(16)14(9-3-2-4-10-14)20(17,18)12-7-5-11(15)6-8-12/h5-8H,2-4,9-10H2,1H3",FRWFRRPXOYMNKY-UHFFFAOYSA-N,COC(=O)C1(CCCCC1)[S](=O)(=O)C2=CC=C(Br)C=C2,-4.48,0.0,1,G1
C-745,pentabromophenol,InChI=1S/C6HBr5O/c7-1-2(8)4(10)6(12)5(11)3(1)9/h12H,SVHOVVJFOWGYJO-UHFFFAOYSA-N,OC1=C(Br)C(=C(Br)C(=C1Br)Br)Br,-6.6,0.0,1,G1
C-746,uniconazole,"InChI=1S/C15H18ClN3O/c1-15(2,3)14(20)13(19-10-17-9-18-19)8-11-4-6-12(16)7-5-11/h4-10,14,20H,1-3H3/b13-8+",YNWVFADWVLCOPU-MDWZMJQESA-N,CC(C)(C)C(O)\C(=C/C1=CC=C(Cl)C=C1)[N]2C=NC=N2,-4.54,0.0,1,G1
C-747,5'-pivaloyl-idoxuridine; 5'-pivaloyl-5-iodo-2'-deoxyuridine; 5'-pivaloyl-idu,"InChI=1S/C14H19IN2O6/c1-14(2,3)12(20)22-6-9-8(18)4-10(23-9)17-5-7(15)11(19)16-13(17)21/h5,8-10,18H,4,6H2,1-3H3,(H,16,19,21)",LGQAEHYXRMFPHS-UHFFFAOYSA-N,CC(C)(C)C(=O)OCC1OC(CC1O)N2C=C(I)C(=O)NC2=O,-3.36,0.0,1,G1
C-748,thiamphenicol,"InChI=1S/C12H15Cl2NO5S/c1-21(19,20)8-4-2-7(3-5-8)10(17)9(6-16)15-12(18)11(13)14/h2-5,9-11,16-17H,6H2,1H3,(H,15,18)",OTVAEFIXJLOWRX-UHFFFAOYSA-N,C[S](=O)(=O)C1=CC=C(C=C1)C(O)C(CO)NC(=O)C(Cl)Cl,-2.15,0.0,1,G1
C-749,suprofen;  2-[4-(2-thienylcarbonyl)phenyl]propanoic acid,"InChI=1S/C14H12O3S/c1-9(14(16)17)10-4-6-11(7-5-10)13(15)12-3-2-8-18-12/h2-9H,1H3,(H,16,17)",MDKGKXOCJGEUJW-UHFFFAOYSA-N,CC(C(O)=O)C1=CC=C(C=C1)C(=O)C2=CC=CS2,-2.0,0.0,1,G1
C-751,medazepam,"InChI=1S/C16H15ClN2/c1-19-10-9-18-16(12-5-3-2-4-6-12)14-11-13(17)7-8-15(14)19/h2-8,11H,9-10H2,1H3",YLCXGBZIZBEVPZ-UHFFFAOYSA-N,CN1CCN=C(C2=CC=CC=C2)C3=C1C=CC(=C3)Cl,-4.43,0.0,1,G1
C-752,folpet; n-(trichloromethylthio)phthalimide,"InChI=1S/C9H4Cl3NO2S/c10-9(11,12)16-13-7(14)5-3-1-2-4-6(5)8(13)15/h1-4H",HKIOYBQGHSTUDB-UHFFFAOYSA-N,ClC(Cl)(Cl)SN1C(=O)C2=CC=CC=C2C1=O,-5.57,0.0,1,G1
C-753,carbamazepine,"InChI=1S/C15H12N2O/c16-15(18)17-13-7-3-1-5-11(13)9-10-12-6-2-4-8-14(12)17/h1-10H,(H2,16,18)",FFGPTBGBLSHEPO-UHFFFAOYSA-N,NC(=O)N1C2=C(C=CC=C2)C=CC3=C1C=CC=C3,-3.29,0.017099999999999893,2,G3
C-757,flufenamic  acid,"InChI=1S/C14H10F3NO2/c15-14(16,17)9-4-3-5-10(8-9)18-12-7-2-1-6-11(12)13(19)20/h1-8,18H,(H,19,20)",LPEPZBJOKDYZAD-UHFFFAOYSA-N,OC(=O)C1=CC=CC=C1NC2=CC(=CC=C2)C(F)(F)F,-4.4,0.6512038525684565,5,G4
C-758,trifluralin,"InChI=1S/C13H16F3N3O4/c1-3-5-17(6-4-2)12-10(18(20)21)7-9(13(14,15)16)8-11(12)19(22)23/h7-8H,3-6H2,1-2H3",ZSDSQXJSNMTJDA-UHFFFAOYSA-N,CCCN(CCC)C1=C(C=C(C=C1[N+]([O-])=O)C(F)(F)F)[N+]([O-])=O,-6.05,0.23998812933606176,3,G5
C-760,isopropyl 1-(4-nitrophenylsulfonyl)cyclobutane-1-carboxylate; 1-(4-nitrophenylsulfonyl)cyclobutanecarboxylic acid isopropyl ester,"InChI=1S/C14H17NO6S/c1-10(2)21-13(16)14(8-3-9-14)22(19,20)12-6-4-11(5-7-12)15(17)18/h4-7,10H,3,8-9H2,1-2H3",XWDINLQQGHPOQQ-UHFFFAOYSA-N,CC(C)OC(=O)C1(CCC1)[S](=O)(=O)C2=CC=C(C=C2)[N+]([O-])=O,-3.76,0.0,1,G1
C-761,2-sulfapyridine,"InChI=1S/C11H11N3O2S/c12-9-4-6-10(7-5-9)17(15,16)14-11-3-1-2-8-13-11/h1-8H,12H2,(H,13,14)",GECHUMIMRBOMGK-UHFFFAOYSA-N,NC1=CC=C(C=C1)[S](=O)(=O)NC2=NC=CC=C2,-2.97,0.135,2,G3
C-762,1-(4-chlorophenylsulfonyl)cycloheptanecarboxylic acid isopropyl ester,"InChI=1S/C17H23ClO4S/c1-13(2)22-16(19)17(11-5-3-4-6-12-17)23(20,21)15-9-7-14(18)8-10-15/h7-10,13H,3-6,11-12H2,1-2H3",CNCBPCXAUZPIGA-UHFFFAOYSA-N,CC(C)OC(=O)C1(CCCCCC1)[S](=O)(=O)C2=CC=C(Cl)C=C2,-5.52,0.0,1,G1
C-764,"4-hydroxy-7-oxo-4,5,6,7-tetrahydro-2-sulfamoylthieno[2,3-b]thiopyran","InChI=1S/C7H9NO4S3/c8-15(11,12)6-3-4-5(9)1-2-14(10)7(4)13-6/h3,5,9H,1-2H2,(H2,8,11,12)",DWEPFAMAQPVFBH-UHFFFAOYSA-N,N[S](=O)(=O)C1=CC2=C(S1)[S](=O)CCC2O,-1.35,0.0,1,G1
C-766,5'-butanoyl-idoxuridine; 5'-butanoyl-5-iodo-2'-deoxyuridine; 5'-butanoyl-idu,"InChI=1S/C13H17IN2O6/c1-2-3-11(18)21-6-9-8(17)4-10(22-9)16-5-7(14)12(19)15-13(16)20/h5,8-10,17H,2-4,6H2,1H3,(H,15,19,20)",KDBSFQVOZZGNJK-UHFFFAOYSA-N,CCCC(=O)OCC1OC(CC1O)N2C=C(I)C(=O)NC2=O,-2.84,0.0,1,G1
C-769,sulfadiazine,"InChI=1S/C10H10N4O2S/c11-8-2-4-9(5-3-8)17(15,16)14-10-12-6-1-7-13-10/h1-7H,11H2,(H,12,13,14)",SEEPANYCNGTZFQ-UHFFFAOYSA-N,NC1=CC=C(C=C1)[S](=O)(=O)NC2=NC=CC=N2,-2.76,0.375,2,G3
C-770,5'-isobutanoyl-idoxuridine; 5'-isobutanoyl-5-iodo-2'-deoxyuridine; 5'-isobutanoyl-idu,"InChI=1S/C13H17IN2O6/c1-6(2)12(19)21-5-9-8(17)3-10(22-9)16-4-7(14)11(18)15-13(16)20/h4,6,8-10,17H,3,5H2,1-2H3,(H,15,18,20)",QUQCJNNIGSBSRQ-UHFFFAOYSA-N,CC(C)C(=O)OCC1OC(CC1O)N2C=C(I)C(=O)NC2=O,-2.76,0.0,1,G1
C-771,fentanyl,"InChI=1S/C22H28N2O/c1-2-22(25)24(20-11-7-4-8-12-20)21-14-17-23(18-15-21)16-13-19-9-5-3-6-10-19/h3-12,21H,2,13-18H2,1H3",PJMPHNIQZUBGLI-UHFFFAOYSA-N,CCC(=O)N(C1CCN(CC1)CCC2=CC=CC=C2)C3=CC=CC=C3,-3.82,0.2970499999999998,2,G3
C-772,testosterone  benzoate,"InChI=1S/C26H32O3/c1-25-14-12-19(27)16-18(25)8-9-20-21-10-11-23(26(21,2)15-13-22(20)25)29-24(28)17-6-4-3-5-7-17/h3-7,16,20-23H,8-15H2,1-2H3",RZJSCADWIWNGKI-UHFFFAOYSA-N,CC12CCC3C(CCC4=CC(=O)CCC34C)C1CCC2OC(=O)C5=CC=CC=C5,-4.48,0.0,1,G1
C-776,n-(4-chlorophenyl)benzenesulfonamide,"InChI=1S/C12H10ClNO2S/c13-10-6-8-11(9-7-10)14-17(15,16)12-4-2-1-3-5-12/h1-9,14H",ANRCRHLXUCJAKV-UHFFFAOYSA-N,ClC1=CC=C(N[S](=O)(=O)C2=CC=CC=C2)C=C1,-4.03,0.0,1,G1
C-777,methyl 4-nitrophenylsulfonylcyclopropylcarboxylate; 1-(4-nitrophenylsulfonyl)cyclopropane-2-carboxylic acid methyl ester,"InChI=1S/C11H11NO6S/c1-18-11(13)9-6-10(9)19(16,17)8-4-2-7(3-5-8)12(14)15/h2-5,9-10H,6H2,1H3",FELSOTPKAIENCI-UHFFFAOYSA-N,COC(=O)C1CC1[S](=O)(=O)C2=CC=C(C=C2)[N+]([O-])=O,-3.38,0.0,1,G1
C-779,testosterone  phenylpropionate,"InChI=1S/C28H36O3/c1-27-16-14-21(29)18-20(27)9-10-22-23-11-12-25(28(23,2)17-15-24(22)27)31-26(30)13-8-19-6-4-3-5-7-19/h3-7,18,22-25H,8-17H2,1-2H3",HHSXYDOROIURIP-UHFFFAOYSA-N,CC12CCC3C(CCC4=CC(=O)CCC34C)C1CCC2OC(=O)CCC5=CC=CC=C5,-5.27,0.0,1,G1
C-780,fluoranthene,InChI=1S/C16H10/c1-2-8-13-12(7-1)14-9-3-5-11-6-4-10-15(13)16(11)14/h1-10H,GVEPBJHOBDJJJI-UHFFFAOYSA-N,C1=CC2=C(C=C1)C3=C4C(=CC=C3)C=CC=C24,-5.93,0.04509496153181148,3,G5
C-783,benomyl,"InChI=1S/C14H18N4O3/c1-3-4-9-15-13(19)18-11-8-6-5-7-10(11)16-12(18)17-14(20)21-2/h5-8H,3-4,9H2,1-2H3,(H,15,19)(H,16,17,20)",RIOXQFHNBCKOKP-UHFFFAOYSA-N,CCCCNC(=O)[N]1C(=NC2=C1C=CC=C2)NC(=O)OC,-4.86,0.011499999999999844,2,G3
C-786,testosterone  phenylbutyrate,"InChI=1S/C29H38O3/c1-28-17-15-22(30)19-21(28)11-12-23-24-13-14-26(29(24,2)18-16-25(23)28)32-27(31)10-6-9-20-7-4-3-5-8-20/h3-5,7-8,19,23-26H,6,9-18H2,1-2H3",KPKRHHWUOMEERQ-UHFFFAOYSA-N,CC12CCC3C(CCC4=CC(=O)CCC34C)C1CCC2OC(=O)CCCC5=CC=CC=C5,-5.43,0.0,1,G1
C-787,5'-pentanoyl-idoxuridine; 5'-pentanoyl-5-iodo-2'-deoxyuridine; 5'-pentanoyl-idu,"InChI=1S/C14H19IN2O6/c1-2-3-4-12(19)22-7-10-9(18)5-11(23-10)17-6-8(15)13(20)16-14(17)21/h6,9-11,18H,2-5,7H2,1H3,(H,16,20,21)",IXRSCWSJPFKHLV-UHFFFAOYSA-N,CCCCC(=O)OCC1OC(CC1O)N2C=C(I)C(=O)NC2=O,-3.4,0.0,1,G1
C-788,"3,3',4,4',5-pentachlorobiphenyl",InChI=1S/C12H5Cl5/c13-8-2-1-6(3-9(8)14)7-4-10(15)12(17)11(16)5-7/h1-5H,REHONNLQRWTIFF-UHFFFAOYSA-N,ClC1=CC=C(C=C1Cl)C2=CC(=C(Cl)C(=C2)Cl)Cl,-8.39,0.0,1,G1
C-790,n-(2-chlorophenyl)benzenesulfonamide,"InChI=1S/C12H10ClNO2S/c13-11-8-4-5-9-12(11)14-17(15,16)10-6-2-1-3-7-10/h1-9,14H",KMSWCQQQRKBBAH-UHFFFAOYSA-N,ClC1=CC=CC=C1N[S](=O)(=O)C2=CC=CC=C2,-4.32,0.0,1,G1
C-791,sulpiride,"InChI=1S/C15H23N3O4S/c1-3-18-8-4-5-11(18)10-17-15(19)13-9-12(23(16,20)21)6-7-14(13)22-2/h6-7,9,11H,3-5,8,10H2,1-2H3,(H,17,19)(H2,16,20,21)",BGRJTUBHPOOWDU-UHFFFAOYSA-N,CCN1CCCC1CNC(=O)C2=C(OC)C=CC(=C2)[S](N)(=O)=O,-2.88,0.0,1,G1
C-793,oxolinic  acid,"InChI=1S/C13H11NO5/c1-2-14-5-8(13(16)17)12(15)7-3-10-11(4-9(7)14)19-6-18-10/h3-5H,2,6H2,1H3,(H,16,17)",KYGZCKSPAKDVKC-UHFFFAOYSA-N,CCN1C=C(C(O)=O)C(=O)C2=C1C=C3OCOC3=C2,-4.91,0.0,1,G1
C-794,"2',3,4,4',5-pentachlorobiphenyl",InChI=1S/C12H5Cl5/c13-7-1-2-8(9(14)5-7)6-3-10(15)12(17)11(16)4-6/h1-5H,YAHNWSSFXMVPOU-UHFFFAOYSA-N,ClC1=CC(=C(C=C1)C2=CC(=C(Cl)C(=C2)Cl)Cl)Cl,-8.55,0.0,1,G1
C-796,testosterone  phenylacetate,"InChI=1S/C27H34O3/c1-26-14-12-20(28)17-19(26)8-9-21-22-10-11-24(27(22,2)15-13-23(21)26)30-25(29)16-18-6-4-3-5-7-18/h3-7,17,21-24H,8-16H2,1-2H3",WIJSFCWRMNIREB-UHFFFAOYSA-N,CC12CCC3C(CCC4=CC(=O)CCC34C)C1CCC2OC(=O)CC5=CC=CC=C5,-4.66,0.0,1,G1
C-797,profluralin;  tolban,"InChI=1S/C14H16F3N3O4/c1-2-5-18(8-9-3-4-9)13-11(19(21)22)6-10(14(15,16)17)7-12(13)20(23)24/h6-7,9H,2-5,8H2,1H3",ITVQAKZNYJEWKS-UHFFFAOYSA-N,CCCN(CC1CC1)C2=C(C=C(C=C2[N+]([O-])=O)C(F)(F)F)[N+]([O-])=O,-6.54,0.0,1,G1
C-798,fenclofenac,"InChI=1S/C14H10Cl2O3/c15-10-5-6-13(11(16)8-10)19-12-4-2-1-3-9(12)7-14(17)18/h1-6,8H,7H2,(H,17,18)",IDKAXRLETRCXKS-UHFFFAOYSA-N,OC(=O)CC1=CC=CC=C1OC2=C(Cl)C=C(Cl)C=C2,-4.86,0.0,1,G1
C-801,"2,2',4,4',5-pentachlorobiphenyl",InChI=1S/C12H5Cl5/c13-6-1-2-7(9(14)3-6)8-4-11(16)12(17)5-10(8)15/h1-5H,LMQJBFRGXHMNOX-UHFFFAOYSA-N,ClC1=CC=C(C(=C1)Cl)C2=C(Cl)C=C(Cl)C(=C2)Cl,-7.95,0.0,1,G1
C-803,"2,7-dichlorodibenzodioxin",InChI=1S/C12H6Cl2O2/c13-7-1-3-9-11(5-7)16-10-4-2-8(14)6-12(10)15-9/h1-6H,NBFMTHWVRBOVPE-UHFFFAOYSA-N,ClC1=CC2=C(OC3=C(O2)C=CC(=C3)Cl)C=C1,-7.82,0.0,1,G1
C-804,"2,8-dichlorodibenzodioxin",InChI=1S/C12H6Cl2O2/c13-7-1-3-9-11(5-7)16-12-6-8(14)2-4-10(12)15-9/h1-6H,WMWJCKBJUQDYLM-UHFFFAOYSA-N,ClC1=CC2=C(OC3=C(O2)C=C(Cl)C=C3)C=C1,-7.18,0.0,1,G1
C-805,2-chloro-3-phenylsulfonamidopyridine,"InChI=1S/C11H9ClN2O2S/c12-11-10(7-4-8-13-11)14-17(15,16)9-5-2-1-3-6-9/h1-8,14H",YWIHZYXECGNFTQ-UHFFFAOYSA-N,ClC1=NC=CC=C1N[S](=O)(=O)C2=CC=CC=C2,-3.76,0.0,1,G1
C-807,quinine,"InChI=1S/C20H24N2O2/c1-3-13-12-22-9-7-14(13)10-19(22)20(23)16-6-8-21-18-5-4-15(24-2)11-17(16)18/h3-6,8,11,13-14,19-20,23H,1,7,9-10,12H2,2H3",LOUPRKONTZGTKE-UHFFFAOYSA-N,COC1=CC=C2N=CC=C(C(O)C3CC4CCN3CC4C=C)C2=C1,-2.79,0.29000000000000004,2,G3
C-808,3-chloro-2-phenylsulfonamidopyridine,"InChI=1S/C11H9ClN2O2S/c12-10-7-4-8-13-11(10)14-17(15,16)9-5-2-1-3-6-9/h1-8H,(H,13,14)",MIPCZELJNQPXAK-UHFFFAOYSA-N,ClC1=CC=CN=C1N[S](=O)(=O)C2=CC=CC=C2,-3.17,0.0,1,G1
C-810,mitomycin c,"InChI=1S/C15H18N4O5/c1-5-9(16)12(21)8-6(4-24-14(17)22)15(23-2)13-7(18-13)3-19(15)10(8)11(5)20/h6-7,13,18H,3-4,16H2,1-2H3,(H2,17,22)",NWIBSHFKIJFRCO-UHFFFAOYSA-N,COC12C(COC(N)=O)C3=C(N1CC4NC24)C(=O)C(=C(N)C3=O)C,-2.56,0.0,1,G1
C-811,"2,2',3,4,4'-pentachlorobiphenyl",InChI=1S/C12H5Cl5/c13-6-1-2-7(10(15)5-6)8-3-4-9(14)12(17)11(8)16/h1-5H,LACXVZHAJMVESG-UHFFFAOYSA-N,ClC1=CC=C(C(=C1)Cl)C2=C(Cl)C(=C(Cl)C=C2)Cl,-7.62,0.08999999999999986,2,G3
C-814,"2,3-dichlorodibenzodioxin",InChI=1S/C12H6Cl2O2/c13-7-5-11-12(6-8(7)14)16-10-4-2-1-3-9(10)15-11/h1-6H,YCIYTXRUZSDMRZ-UHFFFAOYSA-N,ClC1=CC2=C(OC3=C(O2)C=CC=C3)C=C1Cl,-7.23,0.0,1,G1
C-815,"2,3,3',4',6-pentachlorobiphenyl",InChI=1S/C12H5Cl5/c13-7-2-1-6(5-10(7)16)11-8(14)3-4-9(15)12(11)17/h1-5H,ARXHIJMGSIYYRZ-UHFFFAOYSA-N,ClC1=CC=C(C=C1Cl)C2=C(Cl)C(=CC=C2Cl)Cl,-7.65,0.0,1,G1
C-817,quinidine,"InChI=1S/C20H24N2O2/c1-3-13-11-22-9-7-15(13)18(12-22)20(23)16-6-8-21-19-5-4-14(24-2)10-17(16)19/h3-6,8,10,13,15,18,20,23H,1,7,9,11-12H2,2H3",AQMBZJFAYLBACQ-UHFFFAOYSA-N,COC1=CC2=C(C=CN=C2C=C1)C(O)C3CN4CCC3C(C4)C=C,-3.36,0.0,1,G1
C-819,"7,7-dioxo-4,5,6,7-tetrahydro-2-sulfamoylthieno[2,3-b]thiopyran","InChI=1S/C7H9NO4S3/c8-15(11,12)6-4-5-2-1-3-14(9,10)7(5)13-6/h4H,1-3H2,(H2,8,11,12)",VVSSGCCPNDSLPL-UHFFFAOYSA-N,N[S](=O)(=O)C1=CC2=C(S1)[S](=O)(=O)CCC2,-2.68,0.0,1,G1
C-821,"2,2',3,5,5'-pentachlorobiphenyl",InChI=1S/C12H5Cl5/c13-6-1-2-10(15)8(3-6)9-4-7(14)5-11(16)12(9)17/h1-5H,CRCBRZBVCDKPGA-UHFFFAOYSA-N,ClC1=CC=C(Cl)C(=C1)C2=C(Cl)C(=CC(=C2)Cl)Cl,-7.82,0.0,1,G1
C-822,oxadixyl,"InChI=1S/C14H18N2O4/c1-10-5-4-6-11(2)13(10)16(12(17)9-19-3)15-7-8-20-14(15)18/h4-6H,7-9H2,1-3H3",UWVQIROCRJWDKL-UHFFFAOYSA-N,COCC(=O)N(N1CCOC1=O)C2=C(C)C=CC=C2C,-1.91,0.0,1,G1
C-824,buparvaquone,"InChI=1S/C21H26O3/c1-21(2,3)14-10-8-13(9-11-14)12-17-18(22)15-6-4-5-7-16(15)19(23)20(17)24/h4-7,13-14,24H,8-12H2,1-3H3",KLLIVCPQDTYMLC-UHFFFAOYSA-N,CC(C)(C)C1CCC(CC1)CC2=C(O)C(=O)C3=C(C=CC=C3)C2=O,-7.04,0.0,1,G1
C-830,tebufenpyrad,"InChI=1S/C18H24ClN3O/c1-6-14-15(19)16(22(5)21-14)17(23)20-11-12-7-9-13(10-8-12)18(2,3)4/h7-10H,6,11H2,1-5H3,(H,20,23)",ZZYSLNWGKKDOML-UHFFFAOYSA-N,CCC1=N[N](C)C(=C1Cl)C(=O)NCC2=CC=C(C=C2)C(C)(C)C,-5.11,0.0,1,G1
C-833,n1-(4-ethylphenyl)sulfanilamide;  1-sulfanilamido-4-ethylbenzene,"InChI=1S/C14H16N2O2S/c1-2-11-3-7-13(8-4-11)16-19(17,18)14-9-5-12(15)6-10-14/h3-10,16H,2,15H2,1H3",JWTZQLSHXWBZJJ-UHFFFAOYSA-N,CCC1=CC=C(N[S](=O)(=O)C2=CC=C(N)C=C2)C=C1,-4.52,0.0,1,G1
C-834,"2,2',3,3',6-pentachlorobiphenyl",InChI=1S/C12H5Cl5/c13-7-4-5-9(15)12(17)10(7)6-2-1-3-8(14)11(6)16/h1-5H,QVWUJLANSDKRAH-UHFFFAOYSA-N,ClC1=C(Cl)C(=CC=C1)C2=C(Cl)C(=CC=C2Cl)Cl,-6.78,0.0,1,G1
C-837,sulfamerazine;  2-sulfanilamido-4-methylpyrimidine,"InChI=1S/C11H12N4O2S/c1-8-6-7-13-11(14-8)15-18(16,17)10-4-2-9(12)3-5-10/h2-7H,12H2,1H3,(H,13,14,15)",QPPBRPIAZZHUNT-UHFFFAOYSA-N,CC1=CC=NC(=N1)N[S](=O)(=O)C2=CC=C(N)C=C2,-3.1,0.12200386150537293,3,G5
C-839,n1-(4-chlorophenyl)sulfanilamide,"InChI=1S/C12H11ClN2O2S/c13-9-1-5-11(6-2-9)15-18(16,17)12-7-3-10(14)4-8-12/h1-8,15H,14H2",RBJGYDGKXTYSSL-UHFFFAOYSA-N,NC1=CC=C(C=C1)[S](=O)(=O)NC2=CC=C(Cl)C=C2,-4.13,0.0,1,G1
C-840,prodiamine,"InChI=1S/C13H17F3N4O4/c1-3-5-18(6-4-2)11-9(19(21)22)7-8(13(14,15)16)10(17)12(11)20(23)24/h7H,3-6,17H2,1-2H3",RSVPPPHXAASNOL-UHFFFAOYSA-N,CCCN(CCC)C1=C(C(=C(C=C1[N+]([O-])=O)C(F)(F)F)N)[N+]([O-])=O,-7.07,0.17999999999999972,2,G3
C-842,clomeprop,"InChI=1S/C16H15Cl2NO2/c1-10-13(17)8-9-14(15(10)18)21-11(2)16(20)19-12-6-4-3-5-7-12/h3-9,11H,1-2H3,(H,19,20)",BDQWWOHKFDSADC-UHFFFAOYSA-N,CC(OC1=C(Cl)C(=C(Cl)C=C1)C)C(=O)NC2=CC=CC=C2,-7.01,0.0,1,G1
C-843,n1-(4-methoxyphenyl)sulfanilamide;  4-methoxysulfabenzene,"InChI=1S/C13H14N2O3S/c1-18-12-6-4-11(5-7-12)15-19(16,17)13-8-2-10(14)3-9-13/h2-9,15H,14H2,1H3",PKCILPHWDZXVQT-UHFFFAOYSA-N,COC1=CC=C(N[S](=O)(=O)C2=CC=C(N)C=C2)C=C1,-4.23,0.0,1,G1