ID,Name,InChI,InChIKey,SMILES,Solubility,SD,Occurrences,Group
B-749,sucrose octaacetate,"InChI=1S/C28H38O19/c1-12(29)37-9-20-22(40-15(4)32)24(42-17(6)34)25(43-18(7)35)27(45-20)47-28(11-39-14(3)31)26(44-19(8)36)23(41-16(5)33)21(46-28)10-38-13(2)30/h20-27H,9-11H2,1-8H3/t20-,21-,22-,23-,24+,25-,26+,27-,28+/m1/s1",ZIJKGAXBCRWEOL-SAXBRCJISA-N,CC(=O)OC[C@H]1O[C@H](O[C@]2(COC(C)=O)O[C@H](COC(C)=O)[C@@H](OC(C)=O)[C@@H]2OC(C)=O)[C@H](OC(C)=O)[C@@H](OC(C)=O)[C@@H]1OC(C)=O,-2.8726,0.0,1,G1
B-751,dipentaerythritol,"InChI=1S/C10H22O7/c11-1-9(2-12,3-13)7-17-8-10(4-14,5-15)6-16/h11-16H,1-8H2",TXBCBTDQIULDIA-UHFFFAOYSA-N,OCC(CO)(CO)COCC(CO)(CO)CO,-1.9582,0.0,1,G1
B-752,"tris(2,3-dibromopropyl) phosphate","InChI=1S/C9H15Br6O4P/c10-1-7(13)4-17-20(16,18-5-8(14)2-11)19-6-9(15)3-12/h7-9H,1-6H2",PQYJRMFWJJONBO-UHFFFAOYSA-N,BrCC(Br)CO[P](=O)(OCC(Br)CBr)OCC(Br)CBr,-4.9405,0.0,1,G1
B-757,pyruvic acid,"InChI=1S/C3H4O3/c1-2(4)3(5)6/h1H3,(H,5,6)",LCTONWCANYUPML-UHFFFAOYSA-N,CC(=O)C(O)=O,1.0552,0.0,1,G1
B-758,alpha-ionone,"InChI=1S/C13H20O/c1-10-6-5-9-13(3,4)12(10)8-7-11(2)14/h6-8,12H,5,9H2,1-4H3/b8-7+",UZFLPKAIBPNNCA-BQYQJAHWSA-N,CC(=O)/C=C/C1C(=CCCC1(C)C)C,-3.2587,0.0,1,G1
B-759,trimethadione,InChI=1S/C6H9NO3/c1-6(2)4(8)7(3)5(9)10-6/h1-3H3,IRYJRGCIQBGHIV-UHFFFAOYSA-N,CN1C(=O)OC(C)(C)C1=O,-0.4568,0.0,1,G1
B-760,"benzamide, n- (4-aminophenyl)sulfonyl -","InChI=1S/C13H12N2O3S/c14-11-6-8-12(9-7-11)19(17,18)15-13(16)10-4-2-1-3-5-10/h1-9H,14H2,(H,15,16)",PBCZLFBEBARBBI-UHFFFAOYSA-N,Nc1ccc(cc1)[S](=O)(=O)NC(=O)c2ccccc2,-2.9501,0.0,1,G1
B-762,silver lactate,"InChI=1S/C3H5O3.Ag/c1-2(4)3(5)6;/h2H,1H3,(H,5,6);/q-1;+1",CUPCAVOUAWGFEI-UHFFFAOYSA-N,[Ag+].CC([O-])C(O)=O,-0.4702,0.0,1,G1
B-763,"2,5-pyrrolidinedione, 1-bromo-",InChI=1S/C4H4BrNO2/c5-6-3(7)1-2-4(6)8/h1-2H2,PCLIMKBDDGJMGD-UHFFFAOYSA-N,BrN1C(=O)CCC1=O,-1.0831,0.0,1,G1
B-764,"1-chloro-2,5-pyrrolidinedione",InChI=1S/C4H4ClNO2/c5-6-3(7)1-2-4(6)8/h1-2H2,JRNVZBWKYDBUCA-UHFFFAOYSA-N,ClN1C(=O)CCC1=O,-0.9702,0.0,1,G1
B-766,"2,6-di-t-butyl-4-methylphenol (bht)","InChI=1S/C15H24O/c1-10-8-11(14(2,3)4)13(16)12(9-10)15(5,6)7/h8-9,16H,1-7H3",NLZUEZXRPGMBCV-UHFFFAOYSA-N,Cc1cc(c(O)c(c1)C(C)(C)C)C(C)(C)C,-5.565,0.0,1,G1
B-767,"2,6-di-t-butylphenol","InChI=1S/C14H22O/c1-13(2,3)10-8-7-9-11(12(10)15)14(4,5)6/h7-9,15H,1-6H3",DKCPKDPYUFEZCP-UHFFFAOYSA-N,CC(C)(C)c1cccc(c1O)C(C)(C)C,-4.9166,0.0,1,G1
B-769,1-hydroxyanthraquinone,"InChI=1S/C14H8O3/c15-11-7-3-6-10-12(11)14(17)9-5-2-1-4-8(9)13(10)16/h1-7,15H",BTLXPCBPYBNQNR-UHFFFAOYSA-N,Oc1cccc2C(=O)c3ccccc3C(=O)c12,-4.4213,0.0,1,G1
B-771,"8-quinolinol,5-chloro-","InChI=1S/C9H6ClNO/c10-7-3-4-8(12)9-6(7)2-1-5-11-9/h1-5,12H",CTQMJYWDVABFRZ-UHFFFAOYSA-N,Oc1ccc(Cl)c2cccnc12,-3.9756,0.0,1,G1
B-778,3-indolebutyric acid,"InChI=1S/C12H13NO2/c14-12(15)7-3-4-9-8-13-11-6-2-1-5-10(9)11/h1-2,5-6,8,13H,3-4,7H2,(H,14,15)",JTEDVYBZBROSJT-UHFFFAOYSA-N,OC(=O)CCCc1c[nH]c2ccccc12,-2.9101,0.0,1,G1
B-782,methyl anthranilate,"InChI=1S/C8H9NO2/c1-11-8(10)6-4-2-3-5-7(6)9/h2-5H,9H2,1H3",VAMXMNNIEUEQDV-UHFFFAOYSA-N,COC(=O)c1ccccc1N,-1.7246,0.0,1,G1
B-786,"1,3-diphenyl-1-triazene","InChI=1S/C12H11N3/c1-3-7-11(8-4-1)13-15-14-12-9-5-2-6-10-12/h1-10H,(H,13,14)",ALIFPGGMJDWMJH-UHFFFAOYSA-N,N(N=Nc1ccccc1)c2ccccc2,-2.596,0.0,1,G1
B-789,sodium propionate,"InChI=1S/C3H6O2.Na/c1-2-3(4)5;/h2H2,1H3,(H,4,5);/q;+1/p-1",JXKPEJDQGNYQSM-UHFFFAOYSA-M,[Na+].CCC([O-])=O,0.7164,0.0,1,G1
B-790,"methyldithiocarbamic acid, na salt","InChI=1S/C2H5NS2.Na/c1-3-2(4)5;/h1H3,(H2,3,4,5);/q;+1/p-1",AFCCDDWKHLHPDF-UHFFFAOYSA-M,[Na+].CNC([S-])=S,0.7473,0.0,1,G1
B-791,glutamic acid hydrochloride,"InChI=1S/C5H9NO4.ClH/c6-3(5(9)10)1-2-4(7)8;/h3H,1-2,6H2,(H,7,8)(H,9,10);1H",RPAJSBKBKSSMLJ-UHFFFAOYSA-N,[H+].[Cl-].NC(CCC(O)=O)C(O)=O,0.3159,0.0,1,G1
B-793,"benzenesulfonic acid, 3-hydrazino-","InChI=1S/C6H8N2O3S/c7-8-5-2-1-3-6(4-5)12(9,10)11/h1-4,8H,7H2,(H,9,10,11)",ZDGHHRPKFCVOJL-UHFFFAOYSA-N,NNc1cccc(c1)[S](O)(=O)=O,-0.8275,0.0,1,G1
B-794,"benzenesulfonamide, 4-(aminomethyl)-","InChI=1S/C7H10N2O2S/c8-5-6-1-3-7(4-2-6)12(9,10)11/h1-4H,5,8H2,(H2,9,10,11)",TYMRLRRVMHJFTF-UHFFFAOYSA-N,NCc1ccc(cc1)[S](N)(=O)=O,0.321,0.0,1,G1
B-798,nitrilotriacetic acid,"InChI=1S/C6H9NO6/c8-4(9)1-7(2-5(10)11)3-6(12)13/h1-3H2,(H,8,9)(H,10,11)(H,12,13)",MGFYIUFZLHCRTH-UHFFFAOYSA-N,OC(=O)CN(CC(O)=O)CC(O)=O,-0.5101,0.0,1,G1
B-799,"3,4-dihydroxybenzaldehyde","InChI=1S/C7H6O3/c8-4-5-1-2-6(9)7(10)3-5/h1-4,9-10H",IBGBGRVKPALMCQ-UHFFFAOYSA-N,Oc1ccc(C=O)cc1O,-1.3402,0.45010000000000006,2,G3
B-800,"2-thiophenepropanoic acid, .alpha.-amino-","InChI=1S/C7H9NO2S/c8-6(7(9)10)4-5-2-1-3-11-5/h1-3,6H,4,8H2,(H,9,10)",WTOFYLAWDLQMBZ-UHFFFAOYSA-N,NC(Cc1sccc1)C(O)=O,-0.8356,0.0,1,G1
B-801,"ethanol, 2,2'-(ethylimino)bis-","InChI=1S/C6H15NO2/c1-2-7(3-5-8)4-6-9/h8-9H,2-6H2,1H3/p+1",AKNUHUCEWALCOI-UHFFFAOYSA-O,CC[NH+](CCO)CCO,0.8755,0.0,1,G1
B-802,furaltadone,"InChI=1S/C13H16N4O6/c18-13-16(14-7-10-1-2-12(22-10)17(19)20)9-11(23-13)8-15-3-5-21-6-4-15/h1-2,7,11H,3-6,8-9H2/b14-7+",YVQVOQKFMFRVGR-VGOFMYFVSA-N,[O-][N+](=O)c1oc(cc1)/C=N/N2CC(CN3CCOCC3)OC2=O,-2.6359,0.0,1,G1
B-804,"1,2-ethanediamine, n,n'-bis(phenylmethyl)-","InChI=1S/C16H20N2/c1-3-7-15(8-4-1)13-17-11-12-18-14-16-9-5-2-6-10-16/h1-10,17-18H,11-14H2",JUHORIMYRDESRB-UHFFFAOYSA-N,C(CNCc1ccccc1)NCc2ccccc2,-1.7865,0.0,1,G1
B-805,phenylacetonitrile,"InChI=1S/C8H7N/c9-7-6-8-4-2-1-3-5-8/h1-5H,6H2",SUSQOBVLVYHIEX-UHFFFAOYSA-N,N#CCc1ccccc1,-3.0687,0.0,1,G1
B-806,fenaminosulf,"InChI=1S/C8H11N3O3S.Na/c1-11(2)8-5-3-7(4-6-8)9-10-15(12,13)14;/h3-6H,1-2H3,(H,12,13,14);/q;+1/p-1",IWDQPCIQCXRBQP-UHFFFAOYSA-M,[Na+].CN(C)c1ccc(cc1)N=N[S]([O-])(=O)=O,-1.0991,0.0,1,G1
B-808,cyclopentylproprionic acid,"InChI=1S/C8H14O2/c9-8(10)6-5-7-3-1-2-4-7/h7H,1-6H2,(H,9,10)",ZRPLANDPDWYOMZ-UHFFFAOYSA-N,OC(=O)CCC1CCCC1,-1.7691,0.0,1,G1
B-809,2-ethylhexyl fumarate,"InChI=1S/C20H36O4/c1-5-9-11-17(7-3)15-23-19(21)13-14-20(22)24-16-18(8-4)12-10-6-2/h13-14,17-18H,5-12,15-16H2,1-4H3/b14-13+",ROPXFXOUUANXRR-BUHFOSPRSA-N,CCCCC(CC)COC(=O)\C=C\C(=O)OCC(CC)CCCC,-3.5321,0.0,1,G1
B-810,"butanedioic acid, dibutyl ester","InChI=1S/C12H22O4/c1-3-5-9-15-11(13)7-8-12(14)16-10-6-4-2/h3-10H2,1-2H3",YUXIBTJKHLUKBD-UHFFFAOYSA-N,CCCCOC(=O)CCC(=O)OCCCC,-3.0006,0.0,1,G1
B-811,diethyl maleate,"InChI=1S/C8H12O4/c1-3-11-7(9)5-6-8(10)12-4-2/h5-6H,3-4H2,1-2H3/b6-5-",IEPRKVQEAMIZSS-WAYWQWQTSA-N,CCOC(=O)\C=C/C(=O)OCC,-1.0899,0.0,1,G1
B-814,sodium formate,"InChI=1S/CH2O2.Na/c2-1-3;/h1H,(H,2,3);/q;+1/p-1",HLBBKKJFGFRGMU-UHFFFAOYSA-M,[Na+].[O-]C=O,0.8049,0.0,1,G1
B-815,decamethyltetrasiloxane,"InChI=1S/C10H30O3Si4/c1-14(2,3)11-16(7,8)13-17(9,10)12-15(4,5)6/h1-10H3",YFCGDEUVHLPRCZ-UHFFFAOYSA-N,C[Si](C)(C)O[Si](C)(C)O[Si](C)(C)O[Si](C)(C)C,-7.6637,0.0,1,G1
B-823,"acetamide, n-(2-hydroxyethyl)-","InChI=1S/C4H9NO2/c1-4(7)5-2-3-6/h6H,2-3H2,1H3,(H,5,7)",PVCJKHHOXFKFRP-UHFFFAOYSA-N,CC(=O)NCCO,0.9867,0.0,1,G1
B-825,"1,2-hydrazinecarbothioamide","InChI=1S/C2H6N4S2/c3-1(7)5-6-2(4)8/h(H3,3,5,7)(H3,4,6,8)",KCOYHFNCTWXETP-UHFFFAOYSA-N,NC(=S)NNC(N)=S,-1.7965,0.0,1,G1
B-826,monosodium l-glutamate,"InChI=1S/C5H9NO4.Na/c6-3(5(9)10)1-2-4(7)8;/h3H,1-2,6H2,(H,7,8)(H,9,10);/q;+1/p-1",LPUQAYUQRXPFSQ-UHFFFAOYSA-M,[Na+].NC(CCC(O)=O)C([O-])=O,0.3573,0.0,1,G1
B-827,nabam,"InChI=1S/C4H8N2S4.2Na/c7-3(8)5-1-2-6-4(9)10;;/h1-2H2,(H2,5,7,8)(H2,6,9,10);;/q;2*+1/p-2",UQJQVUOTMVCFHX-UHFFFAOYSA-L,[Na+].[Na+].[S-]C(=S)NCCNC([S-])=S,-0.1078,0.0,1,G1
B-828,piperazine hydrochloride,"InChI=1S/C4H10N2.2ClH/c1-2-6-4-3-5-1;;/h5-6H,1-4H2;2*1H",CVVIJWRCGSYCMB-UHFFFAOYSA-N,[H+].[H+].[Cl-].[Cl-].C1CNCCN1,0.4112,0.0,1,G1
B-831,"1-hexanamine, n-hexyl-","InChI=1S/C12H27N/c1-3-5-7-9-11-13-12-10-8-6-4-2/h13H,3-12H2,1-2H3",PXSXRABJBXYMFT-UHFFFAOYSA-N,CCCCCCNCCCCCC,-3.1574,0.0,1,G1
B-832,triethylene glycol butyl ether,"InChI=1S/C10H22O4/c1-2-3-5-12-7-9-14-10-8-13-6-4-11/h11H,2-10H2,1H3",COBPKKZHLDDMTB-UHFFFAOYSA-N,CCCCOCCOCCOCCO,0.6855,0.0,1,G1
B-834,butabarbital sodium,"InChI=1S/C10H16N2O3.Na/c1-4-6(3)10(5-2)7(13)11-9(15)12-8(10)14;/h6H,4-5H2,1-3H3,(H2,11,12,13,14,15);/q;+1/p-1",QORQZMBCPRBCAB-UHFFFAOYSA-M,[Na+].CCC(C)C1(CC)C(=O)NC(=O)[N-]C1=O,0.1528,0.0,1,G1
B-835,"1,3-dioxolane-4,4-diacetic acid, 5-oxo-","InChI=1S/C7H8O7/c8-4(9)1-7(2-5(10)11)6(12)13-3-14-7/h1-3H2,(H,8,9)(H,10,11)",PXPMCAKTYKAROX-UHFFFAOYSA-N,OC(=O)CC1(CC(O)=O)OCOC1=O,-0.611,0.009500000000000008,2,G3
B-836,"2,2,4-trimethyl-1,3-pentanediol","InChI=1S/C8H18O2/c1-6(2)7(10)8(3,4)5-9/h6-7,9-10H,5H2,1-4H3",JCTXKRPTIMZBJT-UHFFFAOYSA-N,CC(C)C(O)C(C)(C)CO,-0.8863,0.0,1,G1
B-837,dsma,"InChI=1S/CH5AsO3.2Na/c1-2(3,4)5;;/h1H3,(H2,3,4,5);;/q;2*+1/p-2",SDIXRDNYIMOKSG-UHFFFAOYSA-L,[Na+].[Na+].C[As]([O-])([O-])=O,0.3711,0.0,1,G1
B-838,fluoroacetic acid,"InChI=1S/C2H3FO2/c3-1-2(4)5/h1H2,(H,4,5)",QEWYKACRFQMRMB-UHFFFAOYSA-N,OC(=O)CF,1.1077,0.0,1,G1
B-841,dl-allothreonine,"InChI=1S/C4H9NO3/c1-2(6)3(5)4(7)8/h2-3,6H,5H2,1H3,(H,7,8)",AYFVYJQAPQTCCC-UHFFFAOYSA-N,CC(O)C(N)C(O)=O,0.067,0.12949855426048415,3,G5
B-846,flumethazide,"InChI=1S/C8H6F3N3O4S2/c9-8(10,11)4-1-5-7(2-6(4)19(12,15)16)20(17,18)14-3-13-5/h1-3H,(H,13,14)(H2,12,15,16)",RGUQWGXAYZNLMI-UHFFFAOYSA-N,N[S](=O)(=O)c1cc2c(NC=N[S]2(=O)=O)cc1C(F)(F)F,-0.8186,0.0,1,G1
B-847,thiabendazole,"InChI=1S/C10H7N3S/c1-2-4-8-7(3-1)12-10(13-8)9-5-14-6-11-9/h1-6H,(H,12,13)",WJCNZQLZVWNLKY-UHFFFAOYSA-N,[nH]1c2ccccc2nc1c3cscn3,-3.6048,1.1524,2,G2
B-851,sodium succinate,"InChI=1S/C4H6O4.2Na/c5-3(6)1-2-4(7)8;;/h1-2H2,(H,5,6)(H,7,8);;/q;2*+1/p-2",ZDQYSKICYIVCPN-UHFFFAOYSA-L,[Na+].[Na+].[O-]C(=O)CCC([O-])=O,0.0914,0.0,1,G1
B-852,potassium cyanide,InChI=1S/CN.K/c1-2;/q-1;+1,NNFCIKHAZHQZJG-UHFFFAOYSA-N,[K+].[C-]#N,1.0436,0.0,1,G1
B-853,aziridine,"InChI=1S/C2H5N/c1-2-3-1/h3H,1-2H2",NOWKCMXCCJGMRR-UHFFFAOYSA-N,C1CN1,1.3658,0.0,1,G1
B-854,octamethylpyrophosphoramide,"InChI=1S/C8H24N4O3P2/c1-9(2)16(13,10(3)4)15-17(14,11(5)6)12(7)8/h1-8H3",SZKKRCSOSQAJDE-UHFFFAOYSA-N,CN(C)[P](=O)(O[P](=O)(N(C)C)N(C)C)N(C)C,0.5433,0.0,1,G1
B-855,vicine,"InChI=1S/C10H16N4O7/c11-7-6(8(19)14-10(12)13-7)21-9-5(18)4(17)3(16)2(1-15)20-9/h2-5,9,15-18H,1H2,(H5,11,12,13,14,19)/t2-,3-,4+,5-,9+/m1/s1",KGNGTSCIQCLKEH-SYCVNHKBSA-N,NC1=NC(=O)C(=C(N)N1)O[C@@H]2O[C@H](CO)[C@@H](O)[C@H](O)[C@H]2O,-1.4832,0.0,1,G1
B-857,p-hydroxyphenylacetic acid,"InChI=1S/C8H8O3/c9-7-3-1-6(2-4-7)5-8(10)11/h1-4,9H,5H2,(H,10,11)",XQXPVVBIMDBYFF-UHFFFAOYSA-N,OC(=O)Cc1ccc(O)cc1,-0.3991,0.0,1,G1
B-858,"1,6-dioxaspiro[4,4]nonane",InChI=1S/C7H12O2/c1-3-7(8-5-1)4-2-6-9-7/h1-6H2,YVSCOIUNVKGTND-UHFFFAOYSA-N,C1COC2(C1)CCCO2,-0.1078,0.0,1,G1
B-863,benzo(c)phenanthrene,InChI=1S/C18H12/c1-3-7-16-13(5-1)9-11-15-12-10-14-6-2-4-8-17(14)18(15)16/h1-12H,TUAHORSUHVUKBD-UHFFFAOYSA-N,c1ccc2c(c1)ccc3ccc4ccccc4c23,-7.8207,0.0,1,G1
B-864,"benz(a,j)aceanthrylene",InChI=1S/C24H14/c1-2-8-17-15(6-1)12-13-21-22(17)14-16-7-5-11-19-18-9-3-4-10-20(18)24(21)23(16)19/h1-14H,ZUAGUFSITPHNKC-UHFFFAOYSA-N,c1ccc2c(c1)ccc3c2cc4cccc5c6ccccc6c3c45,-8.4806,0.0,1,G1
B-870,"14h-dibenzo[a,j]phenothiazine","InChI=1S/C20H13NS/c1-3-7-15-13(5-1)9-11-17-19(15)21-20-16-8-4-2-6-14(16)10-12-18(20)22-17/h1-12,21H",FCTDXVQYLPZTNX-UHFFFAOYSA-N,N1c2c(Sc3ccc4ccccc4c13)ccc5ccccc25,-7.9081,0.0,1,G1
B-871,"7h-dibenzo[c,h]phenothiazine","InChI=1S/C20H13NS/c1-3-7-15-13(5-1)9-11-17-19(15)22-20-16-8-4-2-6-14(16)10-12-18(20)21-17/h1-12,21H",PTOPHPNCDGAXGC-UHFFFAOYSA-N,N1c2ccc3ccccc3c2Sc4c1ccc5ccccc45,-6.8786,0.0,1,G1
B-872,12h-benzo[c]phenothiazine,"InChI=1S/C16H11NS/c1-2-6-12-11(5-1)9-10-15-16(12)17-13-7-3-4-8-14(13)18-15/h1-10,17H",PGIGZWJIJSINOD-UHFFFAOYSA-N,N1c2ccccc2Sc3ccc4ccccc4c13,-5.8957,0.0,1,G1
B-873,7h-benzo[c]phenothiazine,"InChI=1S/C16H11NS/c1-2-6-12-11(5-1)9-10-14-16(12)18-15-8-4-3-7-13(15)17-14/h1-10,17H",WUTNPRKQMZJXTR-UHFFFAOYSA-N,N1c2ccccc2Sc3c1ccc4ccccc34,-6.5727,0.0,1,G1
B-876,"1h-1,2,3-triazolo[4,5-d]pyrimidine","InChI=1S/C4H3N5/c1-3-4(6-2-5-1)8-9-7-3/h1-2H,(H,5,6,7,8,9)",GIIGHSIIKVOWKZ-UHFFFAOYSA-N,[nH]1nc2cncnc2n1,-0.2319,0.0,1,G1
B-878,pyrazole,"InChI=1S/C3H4N2/c1-2-4-5-3-1/h1-3H,(H,4,5)",WTKZEGDFNFYCGP-UHFFFAOYSA-N,[nH]1cccn1,-0.5452,0.0,1,G1
B-879,iso-oxazole,InChI=1S/C3H3NO/c1-2-4-5-3-1/h1-3H,CTAPFRYPJLPFDF-UHFFFAOYSA-N,o1cccn1,0.3827,0.0,1,G1
B-884,phosphamidon,"InChI=1S/C10H19ClNO5P/c1-6-12(7-2)10(13)9(11)8(3)17-18(14,15-4)16-5/h6-7H2,1-5H3/b9-8+",RGCLLPNLLBQHPF-CMDGGOBGSA-N,CCN(CC)C(=O)/C(Cl)=C(/C)O[P](=O)(OC)OC,0.5233,0.0,1,G1
B-891,"l-tyrosine, 3,5-dibromo-","InChI=1S/C9H9Br2NO3/c10-5-1-4(2-6(11)8(5)13)3-7(12)9(14)15/h1-2,7,13H,3,12H2,(H,14,15)/t7-/m0/s1",COESHZUDRKCEPA-ZETCQYMHSA-N,N[C@@H](Cc1cc(Br)c(O)c(Br)c1)C(O)=O,-1.9281,0.0,1,G1
B-893,oxydemeton methyl,"InChI=1S/C6H15O4PS2/c1-4-13(8)6-5-12-11(7,9-2)10-3/h4-6H2,1-3H3",PMCVMORKVPSKHZ-UHFFFAOYSA-N,CC[S](=O)CCS[P](=O)(OC)OC,0.6086,0.0,1,G1
B-894,hydrazine,InChI=1S/H4N2/c1-2/h1-2H2,OAKJQQAXSVQMHS-UHFFFAOYSA-N,NN,1.4942,0.0,1,G1
B-896,aconitine,"InChI=1S/C34H47NO11/c1-7-35-15-31(16-41-3)20(37)13-21(42-4)33-19-14-32(40)28(45-30(39)18-11-9-8-10-12-18)22(19)34(46-17(2)36,27(38)29(32)44-6)23(26(33)35)24(43-5)25(31)33/h8-12,19-29,37-38,40H,7,13-16H2,1-6H3/t19-,20-,21+,22-,23+,24+,25-,26?,27+,28-,29+,31+,32-,33+,34-/m1/s1",XFSBVAOIAHNAPC-XTHSEXKGSA-N,CCN1C[C@]2(COC)[C@H](O)C[C@H](OC)[C@@]34[C@@H]5C[C@]6(O)[C@@H](OC)[C@H](O)[C@](OC(C)=O)([C@@H]([C@H](OC)[C@H]23)C14)[C@H]5[C@H]6OC(=O)c7ccccc7,-3.3187,0.0,1,G1
B-898,alanine,"InChI=1S/C3H7NO2/c1-2(4)3(5)6/h2H,4H2,1H3,(H,5,6)",QNAYBMKLOCPYGJ-UHFFFAOYSA-N,CC(N)C(O)=O,0.2703,0.025149999999999992,2,G3
B-900,potassium sodium tartrate,"InChI=1S/C4H6O6.K.Na/c5-1(3(7)8)2(6)4(9)10;;/h1-2,5-6H,(H,7,8)(H,9,10);;/q;2*+1/p-2/t1-,2-;;/m1../s1",LJCNRYVRMXRIQR-OLXYHTOASA-L,[Na+].[K+].O[C@H]([C@@H](O)C([O-])=O)C([O-])=O,0.3984,0.0,1,G1
B-901,"1,1,1-trifluoro-2,2-dichloroethane","InChI=1S/C2HCl2F3/c3-1(4)2(5,6)7/h1H",OHMHBGPWCHTMQE-UHFFFAOYSA-N,FC(F)(F)C(Cl)Cl,-1.8623,0.0,1,G1
B-903,2-chlorovinyl diethyl phosphate,"InChI=1S/C6H12ClO4P/c1-3-9-12(8,10-4-2)11-6-5-7/h5-6H,3-4H2,1-2H3/b6-5+",DKMDOBOUUAGJNY-AATRIKPKSA-N,CCO[P](=O)(OCC)O\C=C\Cl,-1.3316,0.0,1,G1
B-908,isoleucine,"InChI=1S/C6H13NO2/c1-3-4(2)5(7)6(8)9/h4-5H,3,7H2,1-2H3,(H,8,9)",AGPKZVBTJJNPAG-UHFFFAOYSA-N,CCC(C)C(N)C(O)=O,-0.5033,0.0746,2,G3
B-909,5-chlorosalicylic acid,"InChI=1S/C7H5ClO3/c8-4-1-2-6(9)5(3-4)7(10)11/h1-3,9H,(H,10,11)",NKBASRXWGAGQDP-UHFFFAOYSA-N,OC(=O)c1cc(Cl)ccc1O,-1.237,0.7665,2,G2
B-910,1-fluoronaphthalene,InChI=1S/C10H7F/c11-10-7-3-5-8-4-1-2-6-9(8)10/h1-7H,CWLKTJOTWITYSI-UHFFFAOYSA-N,Fc1cccc2ccccc12,-3.4527,0.0,1,G1
B-911,"acetamide, n-(4-fluoro-2-methylphenyl)-","InChI=1S/C9H10FNO/c1-6-5-8(10)3-4-9(6)11-7(2)12/h3-5H,1-2H3,(H,11,12)",RJKWSTDTEPBWBJ-UHFFFAOYSA-N,CC(=O)Nc1ccc(F)cc1C,-1.3593,0.0,1,G1
B-912,"acetamide, n-(2-fluoro-4-methylphenyl)-","InChI=1S/C9H10FNO/c1-6-3-4-9(8(10)5-6)11-7(2)12/h3-5H,1-2H3,(H,11,12)",WHXUSWHUWNRNHT-UHFFFAOYSA-N,CC(=O)Nc1ccc(C)cc1F,-1.7403,0.0,1,G1
B-914,a-aminocaproic acid,"InChI=1S/C6H13NO2/c1-2-3-4-5(7)6(8)9/h5H,2-4,7H2,1H3,(H,8,9)/t5-/m0/s1",LRQKBLKVPFOOQJ-YFKPBYRVSA-N,CCCC[C@H](N)C(O)=O,-1.0387,0.0,1,G1
B-915,chlorogenic acid,"InChI=1S/C16H18O9/c17-9-3-1-8(5-10(9)18)2-4-13(20)25-12-7-16(24,15(22)23)6-11(19)14(12)21/h1-5,11-12,14,17-19,21,24H,6-7H2,(H,22,23)/b4-2+/t11-,12-,14-,16+/m1/s1",CWVRJTMFETXNAD-JUHZACGLSA-N,O[C@@H]1C[C@](O)(C[C@@H](OC(=O)\C=C\c2ccc(O)c(O)c2)[C@@H]1O)C(O)=O,-0.9473,0.0,1,G1
B-916,leucine,"InChI=1S/C6H13NO2/c1-4(2)3-5(7)6(8)9/h4-5H,3,7H2,1-2H3,(H,8,9)",ROHFNLRQFUQHCH-UHFFFAOYSA-N,CC(C)CC(N)C(O)=O,-1.0456,0.14665778761002315,3,G5
B-917,cyclohexyl methylphosphonofluoridate,"InChI=1S/C7H14FO2P/c1-11(8,9)10-7-5-3-2-4-6-7/h7H,2-6H2,1H3",SNTRKUOVAPUGAY-UHFFFAOYSA-N,C[P](F)(=O)OC1CCCCC1,-1.6875,0.0,1,G1
B-919,o-fluorobenzyl chloride,"InChI=1S/C7H6ClF/c8-5-6-3-1-2-4-7(6)9/h1-4H,5H2",MOBRMRJUKNQBMY-UHFFFAOYSA-N,Fc1ccccc1CCl,-2.541,0.0,1,G1
B-923,fluoroethane,"InChI=1S/C2H5F/c1-2-3/h2H2,1H3",UHCBBWUQDAVSMS-UHFFFAOYSA-N,CCF,-1.3477,0.0,1,G1
B-925,"l-histidine, 3-methyl-","InChI=1S/C7H11N3O2/c1-10-4-9-3-5(10)2-6(8)7(11)12/h3-4,6H,2,8H2,1H3,(H,11,12)/t6-/m0/s1",JDHILDINMRGULE-LURJTMIESA-N,Cn1cncc1C[C@H](N)C(O)=O,0.0727,0.0,1,G1
B-926,benzenediazonium hexafluophosphate (1-),"InChI=1S/C6H5N2.F6P/c7-8-6-4-2-1-3-5-6;1-7(2,3,4,5)6/h1-5H;/q+1;-1",GIDPFONPWSEBOB-UHFFFAOYSA-N,F[P-](F)(F)(F)(F)F.N#[N+]c1ccccc1,-1.4438,0.0,1,G1
B-928,isopestox,"InChI=1S/C6H16FN2OP/c1-5(2)8-11(7,10)9-6(3)4/h5-6H,1-4H3,(H2,8,9,10)",UOSHUBFBCPGQAY-UHFFFAOYSA-N,CC(C)N[P](F)(=O)NC(C)C,-0.3574,0.0,1,G1
B-929,"butanoic acid, 4,4,4-trifluoro-3-oxo-, ethyl est","InChI=1S/C6H7F3O3/c1-2-12-5(11)3-4(10)6(7,8)9/h2-3H2,1H3",OCJKUQIPRNZDTK-UHFFFAOYSA-N,CCOC(=O)CC(=O)C(F)(F)F,-1.3619999999999999,0.0,1,G1
B-931,"1,1-dichloro-1,2,2,2-tetrafluoroethane","InChI=1S/C2Cl2F4/c3-1(4,5)2(6,7)8",BAMUEXIPKSRTBS-UHFFFAOYSA-N,FC(F)(F)C(F)(Cl)Cl,-3.0961,0.0,1,G1
B-932,"acetic acid, difluoro-","InChI=1S/C2H2F2O2/c3-1(4)2(5)6/h1H,(H,5,6)",PBWZKZYHONABLN-UHFFFAOYSA-N,OC(=O)C(F)F,1.0176,0.0,1,G1
B-935,4-fluoro-2-propyl-phenol,"InChI=1S/C9H11FO/c1-2-3-7-6-8(10)4-5-9(7)11/h4-6,11H,2-3H2,1H3",BQWYJUVFIXTFHH-UHFFFAOYSA-N,CCCc1cc(F)ccc1O,-1.8869999999999998,0.0,1,G1
B-936,nidroxyzone,"InChI=1S/C8H10N4O5/c9-8(14)11(3-4-13)10-5-6-1-2-7(17-6)12(15)16/h1-2,5,13H,3-4H2,(H2,9,14)/b10-5+",FJVAAURIDNIYAE-BJMVGYQFSA-N,NC(=O)N(CCO)/N=C/c1oc(cc1)[N+]([O-])=O,-2.6852,0.0,1,G1
B-937,cyanamide,InChI=1S/CH2N2/c2-1-3/h2H2,XZMCDFZZKTWFGF-UHFFFAOYSA-N,NC#N,1.0753,0.0,1,G1
B-941,nandrolone,"InChI=1S/C18H26O2/c1-18-9-8-14-13-5-3-12(19)10-11(13)2-4-15(14)16(18)6-7-17(18)20/h10,13-17,20H,2-9H2,1H3/t13-,14+,15+,16-,17-,18-/m0/s1",NPAGDVCDWIYMMC-IZPLOLCNSA-N,C[C@]12CC[C@H]3[C@@H](CCC4=CC(=O)CC[C@H]34)[C@@H]1CC[C@@H]2O,-1.9484,0.0,1,G1
B-942,"azuleno[6,5-b]furan-2,6-(3h,4h)-dione, 3a,7,7a,8","InChI=1S/C15H20O4/c1-6-4-11-13(8(3)15(18)19-11)14(17)12-7(2)10(16)5-9(6)12/h6,8-9,11,13-14,17H,4-5H2,1-3H3/t6-,8-,9+,11+,13+,14+/m0/s1",BFWXQSLJSDLIAA-GSGOXJSYSA-N,C[C@H]1C[C@H]2OC(=O)[C@@H](C)[C@H]2[C@H](O)C3=C(C)C(=O)C[C@H]13,-1.945,0.0,1,G1
B-945,dl-isoleucine,"InChI=1S/C6H13NO2/c1-3-4(2)5(7)6(8)9/h4-5H,3,7H2,1-2H3,(H,8,9)/t4-,5+/m0/s1",AGPKZVBTJJNPAG-CRCLSJGQSA-N,CC[C@H](C)[C@@H](N)C(O)=O,-0.7875,0.0,1,G1
B-946,"benzeneacetic acid, 2,5-dihydroxy-","InChI=1S/C8H8O4/c9-6-1-2-7(10)5(3-6)4-8(11)12/h1-3,9-10H,4H2,(H,11,12)",IGMNYECMUMZDDF-UHFFFAOYSA-N,OC(=O)Cc1cc(O)ccc1O,0.7037,0.0,1,G1
B-949,"benzoic acid, 4-fluoro-3-nitro-","InChI=1S/C7H4FNO4/c8-5-2-1-4(7(10)11)3-6(5)9(12)13/h1-3H,(H,10,11)",BOJWTAQWPVBIPG-UHFFFAOYSA-N,OC(=O)c1ccc(F)c(c1)[N+]([O-])=O,-1.5809,0.0,1,G1
B-950,m-fluorobenzyl chloride,"InChI=1S/C7H6ClF/c8-5-6-2-1-3-7(9)4-6/h1-4H,5H2",XBDXMDVEZLOGMC-UHFFFAOYSA-N,Fc1cccc(CCl)c1,-2.5436,0.0,1,G1
B-952,"ethane, 1,1-difluoro-2-methoxy-","InChI=1S/C3H6F2O/c1-6-2-3(4)5/h3H,2H2,1H3",CRGZRXUKXVTRNO-UHFFFAOYSA-N,COCC(F)F,-0.2836,0.0,1,G1
B-954,3-aminopyridine,"InChI=1S/C5H6N2/c6-5-2-1-3-7-4-5/h1-4H,6H2",CUYKNJBYIJFRCU-UHFFFAOYSA-N,Nc1cccnc1,1.0263,0.0,1,G1
B-956,".beta.-alanine, n-(aminocarbonyl)-","InChI=1S/C4H8N2O3/c5-4(9)6-2-1-3(7)8/h1-2H2,(H,7,8)(H3,5,6,9)",JSJWCHRYRHKBBW-UHFFFAOYSA-N,NC(=O)NCCC(O)=O,-0.8014,0.0,1,G1
B-959,quinamine,"InChI=1S/C19H24N2O2/c1-2-13-12-21-9-7-14(13)11-17(21)19-18(22,8-10-23-19)15-5-3-4-6-16(15)20-19/h2-6,13-14,17,20,22H,1,7-12H2/t13-,14-,17-,18+,19-/m0/s1",ALNKTVLUDWIWIH-HLQCWHFUSA-N,O[C@@]12CCO[C@@]1(Nc3ccccc23)[C@@H]4C[C@@H]5CCN4C[C@@H]5C=C,-2.6706,0.0,1,G1
B-960,aspidospermine,"InChI=1S/C22H30N2O2/c1-4-21-10-6-13-23-14-12-22(20(21)23)16-7-5-8-17(26-3)19(16)24(15(2)25)18(22)9-11-21/h5,7-8,18,20H,4,6,9-14H2,1-3H3/t18-,20-,21-,22-/m1/s1",ARQOGCYMPUOVHK-ZHHKINOHSA-N,CC[C@@]12CCCN3CC[C@@]4([C@@H](CC1)N(C(C)=O)c5c(OC)cccc45)[C@@H]23,-1.3269,0.0,1,G1
B-961,flurenol,"InChI=1S/C14H10O3/c15-13(16)14(17)11-7-3-1-5-9(11)10-6-2-4-8-12(10)14/h1-8,17H,(H,15,16)",GXAMYUGOODKVRM-UHFFFAOYSA-N,OC(=O)[C@@]1(O)c2ccccc2c3ccccc13,-1.9657,0.0,1,G1
B-962,propoxyphene,"InChI=1S/C22H29NO2/c1-5-21(24)25-22(18(2)17-23(3)4,20-14-10-7-11-15-20)16-19-12-8-6-9-13-19/h6-15,18H,5,16-17H2,1-4H3/t18-,22+/m1/s1",XLMALTXPSGQGBX-GCJKJVERSA-N,CCC(=O)O[C@@](Cc1ccccc1)([C@H](C)CN(C)C)c2ccccc2,-5.0097,0.0,1,G1
B-965,methylguanidine,"InChI=1S/C2H7N3/c1-5-2(3)4/h1H3,(H4,3,4,5)",CHJJGSNFBQVOTG-UHFFFAOYSA-N,CN=C(N)N,-1.6135,0.0,1,G1