ID,Name,InChI,InChIKey,SMILES,Solubility,SD,Occurrences,Group
B-1607,"1,3-disiloxanediol, 1,1,3,3-tetramethyl-","InChI=1S/C4H14O3Si2/c1-8(2,5)7-9(3,4)6/h5-6H,1-4H3",PFEAZKFNWPIFCV-UHFFFAOYSA-N,C[Si](C)(O)O[Si](C)(C)O,-0.1796,0.0,1,G1
B-1608,"pentanedioic acid, dimethyl ester","InChI=1S/C7H12O4/c1-10-6(8)4-3-5-7(9)11-2/h3-5H2,1-2H3",XTDYIOOONNVFMA-UHFFFAOYSA-N,COC(=O)CCCC(=O)OC,-0.4337,0.0,1,G1
B-1611,n-undecane,"InChI=1S/C11H24/c1-3-5-7-9-11-10-8-6-4-2/h3-11H2,1-2H3",RSJKGSCJYJTIGS-UHFFFAOYSA-N,CCCCCCCCCCC,-7.5505,0.0,1,G1
B-1612,"2,4,5-trimethylpyridine","InChI=1S/C8H11N/c1-6-4-8(3)9-5-7(6)2/h4-5H,1-3H3",MNDSSKADVGDFDF-UHFFFAOYSA-N,Cc1cc(C)c(C)cn1,-0.7824,0.0,1,G1
B-1613,4-dimethylaminopyridine,"InChI=1S/C7H10N2/c1-9(2)7-3-5-8-6-4-7/h3-6H,1-2H3/p+1",VHYFNPMBLIVWCW-UHFFFAOYSA-O,CN(C)c1cc[nH+]cc1,-0.2062,0.0,1,G1
B-1614,"pyridine, 2-ethyl-6-methyl-","InChI=1S/C8H11N/c1-3-8-6-4-5-7(2)9-8/h4-6H,3H2,1-2H3",SFSXNVBMAODLGN-UHFFFAOYSA-N,CCc1cccc(C)n1,-0.8234,0.0,1,G1
B-1615,1-hydroxy-cyclohexanecarboxylic acid,"InChI=1S/C7H12O3/c8-6(9)7(10)4-2-1-3-5-7/h10H,1-5H2,(H,8,9)",BPOVRAAUERBWFK-UHFFFAOYSA-N,OC(=O)C1(O)CCCCC1,-0.3328,0.0,1,G1
B-1616,"phenol, 4-chloro-2,6-dimethyl-","InChI=1S/C8H9ClO/c1-5-3-7(9)4-6(2)8(5)10/h3-4,10H,1-2H3",VWYKSJIPZHRLNO-UHFFFAOYSA-N,Cc1cc(Cl)cc(C)c1O,-1.6763,0.0,1,G1
B-1619,"1,2-benzenediol, 4-(2-propenyl)-","InChI=1S/C9H10O2/c1-2-3-7-4-5-8(10)9(11)6-7/h2,4-6,10-11H,1,3H2",FHEHIXJLCWUPCZ-UHFFFAOYSA-N,Oc1ccc(CC=C)cc1O,-0.7787,0.0,1,G1
B-1620,"1h-pyrazol-5-amine, 3-methyl-1-phenyl-","InChI=1S/C10H11N3/c1-8-7-10(11)13(12-8)9-5-3-2-4-6-9/h2-7H,11H2,1H3",FMKMKBLHMONXJM-UHFFFAOYSA-N,Cc1cc(N)n(n1)c2ccccc2,-0.9376,0.0,1,G1
B-1621,p-cyclohexylphenol,"InChI=1S/C12H16O/c13-12-8-6-11(7-9-12)10-4-2-1-3-5-10/h6-10,13H,1-5H2",OAHMVZYHIJQTQC-UHFFFAOYSA-N,Oc1ccc(cc1)C2CCCCC2,-3.468,0.0,1,G1
B-1623,diphenyltin dichloride,InChI=1S/2C6H5.2ClH.Sn/c2*1-2-4-6-5-3-1;;;/h2*1-5H;2*1H;/q;;;;+2/p-2,ISXUHJXWYNONDI-UHFFFAOYSA-L,Cl[Sn](Cl)(c1ccccc1)c2ccccc2,-3.8373,0.0,1,G1
B-1624,1-butyl theobromine,"InChI=1S/C11H16N4O2/c1-4-5-6-15-10(16)8-9(12-7-13(8)2)14(3)11(15)17/h7H,4-6H2,1-3H3",ZCUPBJOZMPROIJ-UHFFFAOYSA-N,CCCCN1C(=O)N(C)c2ncn(C)c2C1=O,-1.6252,0.0,1,G1
B-1626,peruvoside,"InChI=1S/C30H44O9/c1-16-24(33)26(36-3)25(34)27(38-16)39-19-6-10-29(15-31)18(13-19)4-5-22-21(29)7-9-28(2)20(8-11-30(22,28)35)17-12-23(32)37-14-17/h12,15-16,18-22,24-27,33-35H,4-11,13-14H2,1-3H3/t16?,18-,19+,20-,21?,22?,24-,25?,26?,27-,28-,29-,30+/m1/s1",PMTSPAGBAFCORP-DGORKHCUSA-N,COC1[C@H](O)C(C)O[C@H](O[C@H]2CC[C@@]3(C=O)[C@H](CCC4C3CC[C@]5(C)[C@H](CC[C@]45O)C6=CC(=O)OC6)C2)C1O,-3.1373,0.0,1,G1
B-1628,"butanedioic acid, 2,3-diethyl-","InChI=1S/C8H14O4/c1-3-5(7(9)10)6(4-2)8(11)12/h5-6H,3-4H2,1-2H3,(H,9,10)(H,11,12)",KJXMXCRSMLOXBM-UHFFFAOYSA-N,CCC(C(CC)C(O)=O)C(O)=O,-0.8608,0.29745,2,G3
B-1629,3-hydroxy-aspartic acid,"InChI=1S/C4H7NO5/c5-1(3(7)8)2(6)4(9)10/h1-2,6H,5H2,(H,7,8)(H,9,10)/t1-,2+/m0/s1",YYLQUHNPNCGKJQ-NHYDCYSISA-N,N[C@@H]([C@@H](O)C(O)=O)C(O)=O,-0.8271,0.0,1,G1
B-1630,"urea, tetraethyl-","InChI=1S/C9H20N2O/c1-5-10(6-2)9(12)11(7-3)8-4/h5-8H2,1-4H3",UWHSPZZUAYSGTB-UHFFFAOYSA-N,CCN(CC)C(=O)N(CC)CC,-0.6341,0.0,1,G1
B-1631,"l-leucine, n-acetyl-","InChI=1S/C8H15NO3/c1-5(2)4-7(8(11)12)9-6(3)10/h5,7H,4H2,1-3H3,(H,9,10)(H,11,12)/t7-/m0/s1",WXNXCEHXYPACJF-ZETCQYMHSA-N,CC(C)C[C@H](NC(C)=O)C(O)=O,-1.3301,0.0,1,G1
B-1633,"2,5-dihydroxybenzaldehyde","InChI=1S/C7H6O3/c8-4-5-3-6(9)1-2-7(5)10/h1-4,9-10H",CLFRCXCBWIQVRN-UHFFFAOYSA-N,Oc1ccc(O)c(C=O)c1,-1.0004,0.0,1,G1
B-1636,"tetrachloro-1,2-benzenediol",InChI=1S/C6H2Cl4O2/c7-1-2(8)4(10)6(12)5(11)3(1)9/h11-12H,RRBMVWQICIXSEO-UHFFFAOYSA-N,Oc1c(O)c(Cl)c(Cl)c(Cl)c1Cl,-4.9629,0.0,1,G1
B-1637,"dl-alanine, n-benzoyl-","InChI=1S/C10H11NO3/c1-7(10(13)14)11-9(12)8-5-3-2-4-6-8/h2-7H,1H3,(H,11,12)(H,13,14)",UAQVHNZEONHPQG-UHFFFAOYSA-N,CC(NC(=O)c1ccccc1)C(O)=O,-1.6839,0.0,1,G1
B-1638,methyl n-benzoglycine,"InChI=1S/C10H11NO3/c1-14-9(12)7-11-10(13)8-5-3-2-4-6-8/h2-6H,7H2,1H3,(H,11,13)",XTKVNQKOTKPCKM-UHFFFAOYSA-N,COC(=O)CNC(=O)c1ccccc1,-1.0556,0.0,1,G1
B-1639,"10h-phenothiazine, 10-methyl-","InChI=1S/C13H11NS/c1-14-10-6-2-4-8-12(10)15-13-9-5-3-7-11(13)14/h2-9H,1H3",QXBUYALKJGBACG-UHFFFAOYSA-N,CN1c2ccccc2Sc3ccccc13,-5.5934,0.0,1,G1
B-1640,"1h-purin-6-amine, n-(phenylmethyl)-","InChI=1S/C12H11N5/c1-2-4-9(5-3-1)6-13-11-10-12(15-7-14-10)17-8-16-11/h1-5,7-8H,6H2,(H2,13,14,15,16,17)",NWBJYWHLCVSVIJ-UHFFFAOYSA-N,C(Nc1ncnc2nc[nH]c12)c3ccccc3,-3.5745,0.0,1,G1
B-1641,"benzoic acid, 4-hydroxy, octyl ester","InChI=1S/C15H22O3/c1-2-3-4-5-6-7-12-18-15(17)13-8-10-14(16)11-9-13/h8-11,16H,2-7,12H2,1H3",RIKCMEDSBFQFAL-UHFFFAOYSA-N,CCCCCCCCOC(=O)c1ccc(O)cc1,-4.2224,0.0,1,G1
B-1642,galaxolide,"InChI=1S/C18H26O/c1-11-9-19-10-13-7-15-16(8-14(11)13)18(5,6)12(2)17(15,3)4/h7-8,11-12H,9-10H2,1-6H3",ONKNPOPIGWHAQC-UHFFFAOYSA-N,CC1COCc2cc3c(cc12)C(C)(C)C(C)C3(C)C,-5.1693,0.0,1,G1
B-1643,homidium bromide [ban:inn],"InChI=1S/C21H19N3.BrH/c1-2-24-20-13-16(23)9-11-18(20)17-10-8-15(22)12-19(17)21(24)14-6-4-3-5-7-14;/h3-13,23H,2,22H2,1H3;1H",ZMMJGEGLRURXTF-UHFFFAOYSA-N,[Br-].CC[n+]1c2cc(N)ccc2c3ccc(N)cc3c1c4ccccc4,-1.2948,0.0,1,G1
B-1644,2-ethylhexyl diphenyl phosphate,"InChI=1S/C20H27O4P/c1-3-5-12-18(4-2)17-22-25(21,23-19-13-8-6-9-14-19)24-20-15-10-7-11-16-20/h6-11,13-16,18H,3-5,12,17H2,1-2H3",CGSLYBDCEGBZCG-UHFFFAOYSA-N,CCCCC(CC)CO[P](=O)(Oc1ccccc1)Oc2ccccc2,-5.2804,0.0,1,G1
B-1645,"3h-pyrazol-3-one, 4,4'-methylenebis[1,2-dihydro-","InChI=1S/C23H24N4O2/c1-16-20(22(28)26(24(16)3)18-11-7-5-8-12-18)15-21-17(2)25(4)27(23(21)29)19-13-9-6-10-14-19/h5-14H,15H2,1-4H3",QATHNKNPUVVKHK-UHFFFAOYSA-N,CN1N(C(=O)C(=C1C)CC2=C(C)N(C)N(C2=O)c3ccccc3)c4ccccc4,-2.9549,0.0,1,G1
B-1646,carminic acid,"InChI=1S/C22H20O13/c1-4-8-5(2-6(24)9(4)22(33)34)13(25)10-11(15(8)27)16(28)12(18(30)17(10)29)21-20(32)19(31)14(26)7(3-23)35-21/h2,7,14,19-21,23-24,26,28-32H,3H2,1H3,(H,33,34)/t7-,14-,19+,20-,21-/m1/s1",DGQLVPJVXFOQEV-NGOCYOHBSA-N,Cc1c(C(O)=O)c(O)cc2C(=O)c3c(O)c(O)c([C@H]4O[C@H](CO)[C@@H](O)[C@H](O)[C@H]4O)c(O)c3C(=O)c12,-2.5784,0.0,1,G1
B-1649,tricresyl phosphate,"InChI=1S/C21H21O4P/c1-16-4-10-19(11-5-16)23-26(22,24-20-12-6-17(2)7-13-20)25-21-14-8-18(3)9-15-21/h4-15H,1-3H3",BOSMZFBHAYFUBJ-UHFFFAOYSA-N,Cc1ccc(O[P](=O)(Oc2ccc(C)cc2)Oc3ccc(C)cc3)cc1,-6.01,0.03960000000000008,2,G3
B-1650,tetramethyl decynediol,"InChI=1S/C14H26O2/c1-9(2)11(4)12(5)14(16)8-7-10(3)13(6)15/h9-16H,1-6H3",WWPTYZFXUOTSDY-UHFFFAOYSA-N,CC(C)C(C)C(C)C(O)C#CC(C)C(C)O,-2.2756,0.0,1,G1
B-1652,aloin,"InChI=1S/C21H22O9/c22-6-8-4-10-14(21-20(29)19(28)17(26)13(7-23)30-21)9-2-1-3-11(24)15(9)18(27)16(10)12(25)5-8/h1-5,13-14,17,19-26,28-29H,6-7H2/t13-,14-,17-,19+,20-,21+/m1/s1",AFHJQYHRLPMKHU-WEZNYRQKSA-N,OC[C@H]1O[C@H]([C@H](O)[C@@H](O)[C@@H]1O)[C@@H]2c3cccc(O)c3C(=O)c4c(O)cc(CO)cc24,-1.7025,0.0,1,G1
B-1653,niclosamide ethanolamine salt,"InChI=1S/C13H8Cl2N2O4.C2H7NO/c14-7-1-4-12(18)9(5-7)13(19)16-11-3-2-8(17(20)21)6-10(11)15;3-1-2-4/h1-6,18H,(H,16,19);4H,1-3H2",XYCDHXSQODHSLG-UHFFFAOYSA-N,NCCO.Oc1ccc(Cl)cc1C(=O)Nc2ccc(cc2Cl)[N+]([O-])=O,-3.5891,0.0,1,G1
B-1654,trifenmorph,"InChI=1S/C23H23NO/c1-4-10-20(11-5-1)23(21-12-6-2-7-13-21,22-14-8-3-9-15-22)24-16-18-25-19-17-24/h1-15H,16-19H2",ZJMLMBICUVVJDX-UHFFFAOYSA-N,C1CN(CCO1)C(c2ccccc2)(c3ccccc3)c4ccccc4,-7.2168,0.0,1,G1
B-1656,4-(4-nitrophenylazo)phenol,"InChI=1S/C12H9N3O3/c16-12-7-3-10(4-8-12)14-13-9-1-5-11(6-2-9)15(17)18/h1-8,13H",ISHCVXKNSGUMPL-UHFFFAOYSA-N,[O-][N+](=O)c1ccc(NN=C2C=CC(=O)C=C2)cc1,-4.796,0.0,1,G1
B-1657,2-pyridinecarboxamide,"InChI=1S/C6H6N2O/c7-6(9)5-3-1-2-4-8-5/h1-4H,(H2,7,9)",IBBMAWULFFBRKK-UHFFFAOYSA-N,NC(=O)c1ccccn1,0.1685,0.0,1,G1
B-1659,"2,6-dimethyl-n-nitrosomorpholine","InChI=1S/C6H12N2O2/c1-5-3-8(7-9)4-6(2)10-5/h5-6H,3-4H2,1-2H3",DPYMAXOKJUBANR-UHFFFAOYSA-N,CC1CN(CC(C)O1)N=O,-0.0655,0.0,1,G1
B-1660,dimethyl isophthalate,"InChI=1S/C10H10O4/c1-13-9(11)7-4-3-5-8(6-7)10(12)14-2/h3-6H,1-2H3",VNGOYPQMJFJDLV-UHFFFAOYSA-N,COC(=O)c1cccc(c1)C(=O)OC,-2.8258,0.0,1,G1
B-1661,"pyridine, 2,3,6-trimethyl-","InChI=1S/C8H11N/c1-6-4-5-7(2)9-8(6)3/h4-5H,1-3H3",UTBIMNXEDGNJFE-UHFFFAOYSA-N,Cc1ccc(C)c(C)n1,-0.5893,0.0,1,G1
B-1663,5-indanol,"InChI=1S/C9H10O/c10-9-5-4-7-2-1-3-8(7)6-9/h4-6,10H,1-3H2",PEHSSTUGJUBZBI-UHFFFAOYSA-N,Oc1ccc2CCCc2c1,-1.3285,0.0,1,G1
B-1664,"1,4-dichloro-2-butene(cis)","InChI=1S/C4H6Cl2/c5-3-1-2-4-6/h1-2H,3-4H2/b2-1-",FQDIANVAWVHZIR-UPHRSURJSA-N,ClC\C=C/CCl,-2.3333,0.0,1,G1
B-1667,"cyclohexanone, 2-(1-cyclohexen-1-yl)-","InChI=1S/C12H18O/c13-12-9-5-4-8-11(12)10-6-2-1-3-7-10/h6,11H,1-5,7-9H2",GVNVAWHJIKLAGL-UHFFFAOYSA-N,O=C1CCCCC1C2=CCCCC2,-2.7739999999999996,0.0,1,G1
B-1671,"n,n-diethyl succinamic acid","InChI=1S/C8H15NO3/c1-3-9(4-2)7(10)5-6-8(11)12/h3-6H2,1-2H3,(H,11,12)",XILORGWKMLOGKF-UHFFFAOYSA-N,CCN(CC)C(=O)CCC(O)=O,-0.7937,0.0,1,G1
B-1675,1-propoxy-2-propanol,"InChI=1S/C6H14O2/c1-3-4-8-5-6(2)7/h6-7H,3-5H2,1-2H3",FENFUOGYJVOCRY-UHFFFAOYSA-N,CCCOCC(C)O,0.9275,0.0,1,G1
B-1678,"4,6-dichloro-o-cresol","InChI=1S/C7H6Cl2O/c1-4-2-5(8)3-6(9)7(4)10/h2-3,10H,1H3",WJQZZLQMLJPKQH-UHFFFAOYSA-N,Cc1cc(Cl)cc(Cl)c1O,-2.0439,0.0,1,G1
B-1679,"benzamide, 3-(aminosulfonyl)-","InChI=1S/C7H8N2O3S/c8-7(10)5-2-1-3-6(4-5)13(9,11)12/h1-4H,(H2,8,10)(H2,9,11,12)",AJVBPNRMKNARPG-UHFFFAOYSA-N,NC(=O)c1cccc(c1)[S](N)(=O)=O,-2.1554,0.0,1,G1
B-1680,"2-propenoic acid, 3,3-dibromo-","InChI=1S/C3H2Br2O2/c4-2(5)1-3(6)7/h1H,(H,6,7)",VWWPGQPTCCQNIO-UHFFFAOYSA-N,OC(=O)C=C(Br)Br,-0.8358,0.0,1,G1
B-1682,"urea, n,n''-ethylidenebis-","InChI=1S/C4H10N4O2/c1-2(7-3(5)9)8-4(6)10/h2H,1H3,(H3,5,7,9)(H3,6,8,10)",MIWFLWHJKFXSDI-UHFFFAOYSA-N,CC(NC(N)=O)NC(N)=O,-0.5916,0.0,1,G1
B-1683,"hydrazinecarboxamide, 2-cyclohexylidene-","InChI=1S/C7H13N3O/c8-7(11)10-9-6-4-2-1-3-5-6/h1-5H2,(H3,8,10,11)",KZDDDHJBINUIKQ-UHFFFAOYSA-N,NC(=O)NN=C1CCCCC1,-1.4127,0.0,1,G1
B-1684,"2-naphthalenebutanoic acid, .gamma.-oxo-","InChI=1S/C14H12O3/c15-13(7-8-14(16)17)12-6-5-10-3-1-2-4-11(10)9-12/h1-6,9H,7-8H2,(H,16,17)",GZKLCZIMSAHQDR-UHFFFAOYSA-N,OC(=O)CCC(=O)c1ccc2ccccc2c1,-3.8533,0.0,1,G1
B-1687,atratone,"InChI=1S/C9H17N5O/c1-5-10-7-12-8(11-6(2)3)14-9(13-7)15-4/h6H,5H2,1-4H3,(H2,10,11,12,13,14)",PXWUKZGIHQRDHL-UHFFFAOYSA-N,CCNc1nc(NC(C)C)nc(OC)n1,-2.0696,0.018316719745146023,3,G5
B-1688,"2,4-pentadienenitrile","InChI=1S/C5H5N/c1-2-3-4-5-6/h2-4H,1H2/b4-3-",STSRVFAXSLNLLI-ARJAWSKDSA-N,C=C\C=C/C#N,-0.7221,0.0,1,G1
B-1691,malaoxon,"InChI=1S/C10H19O7PS/c1-5-16-9(11)7-8(10(12)17-6-2)19-18(13,14-3)15-4/h8H,5-7H2,1-4H3",WSORODGWGUUOBO-UHFFFAOYSA-N,CCOC(=O)CC(S[P](=O)(OC)OC)C(=O)OCC,-1.6223,0.0,1,G1
B-1692,1-heptanethiol,"InChI=1S/C7H16S/c1-2-3-4-5-6-7-8/h8H,2-7H2,1H3",VPIAKHNXCOTPAY-UHFFFAOYSA-N,CCCCCCCS,-4.1549,0.0,1,G1
B-1693,aldicarb sulfoxide,"InChI=1S/C7H14N2O3S/c1-7(2,13(4)11)5-9-12-6(10)8-3/h5H,1-4H3,(H,8,10)/b9-5+",BXPMAGSOWXBZHS-WEVVVXLNSA-N,CNC(=O)O\N=C\C(C)(C)[S](C)=O,-0.8673,0.0,1,G1
B-1695,"1,2-dichloro-1,1-difluoroethane","InChI=1S/C2H2Cl2F2/c3-1-2(4,5)6/h1H2",SKDFWEPBABSFMG-UHFFFAOYSA-N,FC(F)(Cl)CCl,-2.2007,0.0,1,G1
B-1697,"1-heptanol, 6-methyl-","InChI=1S/C8H18O/c1-8(2)6-4-3-5-7-9/h8-9H,3-7H2,1-2H3",BWDBEAQIHAEVLV-UHFFFAOYSA-N,CC(C)CCCCCO,-2.3038,0.0,1,G1
B-1701,alpha-pinene oxide,"InChI=1S/C10H16O/c1-9(2)6-4-7(9)10(3)8(5-6)11-10/h6-8H,4-5H2,1-3H3",NQFUSWIGRKFAHK-UHFFFAOYSA-N,CC1(C)C2CC3OC3(C)C1C2,-2.5937,0.0,1,G1
B-1702,"1(3h)isobenzofuranone-3,3-dimethyl","InChI=1S/C10H10O2/c1-10(2)8-6-4-3-5-7(8)9(11)12-10/h3-6H,1-2H3",YFBZUWUJSCLVST-UHFFFAOYSA-N,CC1(C)OC(=O)c2ccccc12,-1.8684,0.0,1,G1
B-1706,bromoxynil octanoate,"InChI=1S/C15H17Br2NO2/c1-2-3-4-5-6-7-14(19)20-15-12(16)8-11(10-18)9-13(15)17/h8-9H,2-7H2,1H3",DQKWXTIYGWPGOO-UHFFFAOYSA-N,CCCCCCCC(=O)Oc1c(Br)cc(cc1Br)C#N,-6.7023,0.0,1,G1
B-1707,"2-phenyl-4,5-dichloro-3-pyridazinone",InChI=1S/C10H6Cl2N2O/c11-8-6-13-14(10(15)9(8)12)7-4-2-1-3-5-7/h1-6H,VKWCOHVAHQOJGU-UHFFFAOYSA-N,ClC1=C(Cl)C(=O)N(N=C1)c2ccccc2,-3.3822,0.0,1,G1
B-1709,"3,6-dichloropicolinic acid","InChI=1S/C6H3Cl2NO2/c7-3-1-2-4(8)9-5(3)6(10)11/h1-2H,(H,10,11)",HUBANNPOLNYSAD-UHFFFAOYSA-N,OC(=O)c1nc(Cl)ccc1Cl,-1.3884,0.44579999999999986,2,G3
B-1711,isopropyl nitrate,"InChI=1S/C3H7NO3/c1-3(2)7-4(5)6/h3H,1-2H3",GAPFWGOSHOCNBM-UHFFFAOYSA-N,CC(C)O[N+]([O-])=O,-1.4593,0.0,1,G1
B-1712,"1,1-dichlorofluoroethane","InChI=1S/C2H3Cl2F/c1-2(3,4)5/h1H3",FRCHKSNAZZFGCA-UHFFFAOYSA-N,CC(F)(Cl)Cl,-2.4448,0.0,1,G1
B-1713,"10h-phenothiazine, 2-chloro-7-methoxy-","InChI=1S/C13H10ClNOS/c1-16-9-3-4-10-13(7-9)17-12-5-2-8(14)6-11(12)15-10/h2-7,15H,1H3",VGCKEWCZFDSELD-UHFFFAOYSA-N,COc1ccc2Nc3cc(Cl)ccc3Sc2c1,-4.9787,0.0,1,G1
B-1714,dehydroabietic acid,"InChI=1S/C20H28O2/c1-13(2)14-6-8-16-15(12-14)7-9-17-19(16,3)10-5-11-20(17,4)18(21)22/h6,8,12-13,17H,5,7,9-11H2,1-4H3,(H,21,22)/t17-,19-,20-/m1/s1",NFWKVWVWBFBAOV-MISYRCLQSA-N,CC(C)c1ccc2c(CC[C@H]3[C@@](C)(CCC[C@]23C)C(O)=O)c1,-4.6582,0.0,1,G1
B-1715,"[1,2,4,5]tetrazino[1,2-a][1,2,4,5]tetrazine, oct","InChI=1S/C4H12N6/c1-5-6-3-10-4-8-7-2-9(1)10/h5-8H,1-4H2",RRIGVQQUVAETIG-UHFFFAOYSA-N,C1NNCN2CNNCN12,-0.0128,0.0,1,G1
B-1716,nicotinanilide,"InChI=1S/C12H10N2O/c15-12(10-5-4-8-13-9-10)14-11-6-2-1-3-7-11/h1-9H,(H,14,15)",NYQXIOZBHWFCBU-UHFFFAOYSA-N,O=C(Nc1ccccc1)c2cccnc2,-3.093,0.0,1,G1
B-1717,"1,2,3-benzothiadiazol-5-amine","InChI=1S/C6H5N3S/c7-4-1-2-6-5(3-4)8-9-10-6/h1-3H,7H2",NTOZWWRQYAJWGC-UHFFFAOYSA-N,Nc1ccc2snnc2c1,-1.3045,0.0,1,G1
B-1718,"thiocyanic acid, ammonium salt",InChI=1S/CHNS.H3N/c2-1-3;/h3H;1H3,SOIFLUNRINLCBN-UHFFFAOYSA-N,[NH4+].[S-]C#N,0.9178,0.0,1,G1
B-1719,"benzenemethanol, 2,4-dichloro-","InChI=1S/C7H6Cl2O/c8-6-2-1-5(4-10)7(9)3-6/h1-3,10H,4H2",DBHODFSFBXJZNY-UHFFFAOYSA-N,OCc1ccc(Cl)cc1Cl,-2.248,0.0,1,G1
B-1720,"methane, chloronitro-",InChI=1S/CH2ClNO2/c2-1-3(4)5/h1H2,CGKPGVZMSKVVOF-UHFFFAOYSA-N,[O-][N+](=O)CCl,-0.281,0.0,1,G1
B-1721,"propanal, 2-(hydroxyimino)-, oxime","InChI=1S/C3H6N2O2/c1-3(5-7)2-4-6/h2,5,7H,1H3/b3-2+",YYWZDZMCXPSGDF-NSCUHMNNSA-N,C\C(NO)=C/N=O,-0.3462,0.0,1,G1
B-1722,"3,4-dichlorobenzyl alcohol","InChI=1S/C7H6Cl2O/c8-6-2-1-5(4-10)3-7(6)9/h1-3,10H,4H2",FVJIUQSKXOYFKG-UHFFFAOYSA-N,OCc1ccc(Cl)c(Cl)c1,-2.0439,0.0,1,G1
B-1723,dibutyl phosphite,"InChI=1S/C8H18O3P/c1-3-5-7-10-12(9)11-8-6-4-2/h3-8H2,1-2H3/q+1",OSPSWZSRKYCQPF-UHFFFAOYSA-N,CCCCO[P+](=O)OCCCC,-1.4249,0.0,1,G1
B-1725,"1,4-dichloronaphthalene",InChI=1S/C10H6Cl2/c11-9-5-6-10(12)8-4-2-1-3-7(8)9/h1-6H,JDPKCYMVSKDOGS-UHFFFAOYSA-N,Clc1ccc(Cl)c2ccccc12,-5.3576,0.22120000000000006,2,G3
B-1729,"4-heptanol, 3-methyl-","InChI=1S/C8H18O/c1-4-6-8(9)7(3)5-2/h7-9H,4-6H2,1-3H3",JMRDKKYZLXDPLN-UHFFFAOYSA-N,CCCC(O)C(C)CC,-1.8406,0.0,1,G1
B-1730,fluspirilene,"InChI=1S/C29H31F2N3O/c30-24-12-8-22(9-13-24)27(23-10-14-25(31)15-11-23)7-4-18-33-19-16-29(17-20-33)28(35)32-21-34(29)26-5-2-1-3-6-26/h1-3,5-6,8-15,27H,4,7,16-21H2,(H,32,35)",QOYHHIBFXOOADH-UHFFFAOYSA-N,Fc1ccc(cc1)C(CCCN2CCC3(CC2)N(CNC3=O)c4ccccc4)c5ccc(F)cc5,-4.6772,0.0,1,G1
B-1731,undecanedioic acid,"InChI=1S/C11H20O4/c12-10(13)8-6-4-2-1-3-5-7-9-11(14)15/h1-9H2,(H,12,13)(H,14,15)",LWBHHRRTOZQPDM-UHFFFAOYSA-N,OC(=O)CCCCCCCCCC(O)=O,-1.6274,0.0,1,G1
B-1734,tritac,"InChI=1S/C10H11Cl3O2/c1-6(14)4-15-5-7-8(11)2-3-9(12)10(7)13/h2-3,6,14H,4-5H2,1H3",LJWIIRATRWPHBA-UHFFFAOYSA-N,CC(O)COCc1c(Cl)ccc(Cl)c1Cl,-3.5673,0.0,1,G1
B-1735,ketamine,"InChI=1S/C13H16ClNO.ClH/c1-15-13(9-5-4-8-12(13)16)10-6-2-3-7-11(10)14;/h2-3,6-7,15H,4-5,8-9H2,1H3;1H",VCMGMSHEPQENPE-UHFFFAOYSA-N,[H+].[Cl-].CNC1(CCCCC1=O)c2ccccc2Cl,-0.13699999999999998,0.0,1,G1
B-1736,"phenol, 4-chloro-3,5-dimethyl-2-(phenylmethyl)-","InChI=1S/C15H15ClO/c1-10-8-14(17)13(11(2)15(10)16)9-12-6-4-3-5-7-12/h3-8,17H,9H2,1-2H3",DTWBOPJMZJGHEW-UHFFFAOYSA-N,Cc1cc(O)c(Cc2ccccc2)c(C)c1Cl,-4.3009,0.0,1,G1
B-1737,"ethanediamide, n,n'-bis(2-hydroxyethyl)-","InChI=1S/C6H12N2O4/c9-3-1-7-5(11)6(12)8-2-4-10/h9-10H,1-4H2,(H,7,11)(H,8,12)",FPQJEXTVQZHURJ-UHFFFAOYSA-N,OCCNC(=O)C(=O)NCCO,-0.1124,0.0,1,G1
B-1739,o-methylphenoxyacetic acid,"InChI=1S/C9H10O3/c1-7-4-2-3-5-8(7)12-6-9(10)11/h2-5H,6H2,1H3,(H,10,11)",QJVXBRUGKLCUMY-UHFFFAOYSA-N,Cc1ccccc1OCC(O)=O,-2.4424,0.0,1,G1
B-1740,o-nitrophenoxyacetic acid,"InChI=1S/C8H7NO5/c10-8(11)5-14-7-4-2-1-3-6(7)9(12)13/h1-4H,5H2,(H,10,11)",TYHHDWAHJRRYCU-UHFFFAOYSA-N,OC(=O)COc1ccccc1[N+]([O-])=O,-2.016,0.0,1,G1
B-1741,di-tert-butylsulfone,"InChI=1S/C8H18O2S/c1-7(2,3)11(9,10)8(4,5)6/h1-6H3",SPJQDMKTFSPPLO-UHFFFAOYSA-N,CC(C)(C)[S](=O)(=O)C(C)(C)C,-1.2177,0.0,1,G1
B-1742,perchloropropylene,"InChI=1S/C3Cl6/c4-1(2(5)6)3(7,8)9",VFDYKPARTDCDCU-UHFFFAOYSA-N,ClC(Cl)=C(Cl)C(Cl)(Cl)Cl,-4.1651,0.0,1,G1
B-1743,"2-furancarboxaldehyde, 5-bromo-",InChI=1S/C5H3BrO2/c6-5-2-1-4(3-7)8-5/h1-3H,WJTFHWXMITZNHS-UHFFFAOYSA-N,Brc1oc(C=O)cc1,-1.544,0.0,1,G1
B-1744,ipazine,"InChI=1S/C10H18ClN5/c1-5-16(6-2)10-14-8(11)13-9(15-10)12-7(3)4/h7H,5-6H2,1-4H3,(H,12,13,14,15)",OWYWGLHRNBIFJP-UHFFFAOYSA-N,CCN(CC)c1nc(Cl)nc(NC(C)C)n1,-3.7849,0.0,1,G1
B-1746,"2-furancarboxaldehyde, 5-(methoxymethyl)-","InChI=1S/C7H8O3/c1-9-5-7-3-2-6(4-8)10-7/h2-4H,5H2,1H3",ASHVULSQMDWKFO-UHFFFAOYSA-N,COCc1oc(C=O)cc1,-0.4992,0.0,1,G1
B-1749,dipropalin,"InChI=1S/C13H19N3O4/c1-4-6-14(7-5-2)13-11(15(17)18)8-10(3)9-12(13)16(19)20/h8-9H,4-7H2,1-3H3",UDVZOMAEGATTSE-UHFFFAOYSA-N,CCCN(CCC)c1c(cc(C)cc1[N+]([O-])=O)[N+]([O-])=O,-2.9663,0.0,1,G1
B-1752,10h-phenothiazin-3-ol,"InChI=1S/C12H9NOS/c14-8-5-6-10-12(7-8)15-11-4-2-1-3-9(11)13-10/h1-7,13-14H",JAMWHXUWMDVHJF-UHFFFAOYSA-N,Oc1ccc2Nc3ccccc3Sc2c1,-2.5748,0.0,1,G1
B-1753,"2,4-d, methyl ester","InChI=1S/C9H8Cl2O3/c1-13-9(12)5-14-8-3-2-6(10)4-7(8)11/h2-4H,5H2,1H3",HWIGZMADSFQMOI-UHFFFAOYSA-N,COC(=O)COc1ccc(Cl)cc1Cl,-2.9596,0.0,1,G1
B-1754,"2,4,5-t, ethyl ester","InChI=1S/C10H9Cl3O3/c1-2-15-10(14)5-16-9-4-7(12)6(11)3-8(9)13/h3-4H,2,5H2,1H3",LVNNFHCEDQSWSC-UHFFFAOYSA-N,CCOC(=O)COc1cc(Cl)c(Cl)cc1Cl,-4.8493,0.0,1,G1
B-1755,"2,4-d, octyl ester","InChI=1S/C16H22Cl2O3/c1-2-3-4-5-6-7-10-20-16(19)12-21-15-9-8-13(17)11-14(15)18/h8-9,11H,2-7,10,12H2,1H3",JWEDKKSQRXHXJD-UHFFFAOYSA-N,CCCCCCCCOC(=O)COc1ccc(Cl)cc1Cl,-7.0217,0.0,1,G1
B-1756,"2,4-d, propyl ester","InChI=1S/C11H12Cl2O3/c1-2-5-15-11(14)7-16-10-4-3-8(12)6-9(10)13/h3-4,6H,2,5,7H2,1H3",URELEWKDONECLX-UHFFFAOYSA-N,CCCOC(=O)COc1ccc(Cl)cc1Cl,-4.2502,0.0,1,G1
B-1757,p-meo-b-phenylpropionic acid,"InChI=1S/C10H12O3/c1-13-9-5-2-8(3-6-9)4-7-10(11)12/h2-3,5-6H,4,7H2,1H3,(H,11,12)",FIUFLISGGHNPSM-UHFFFAOYSA-N,COc1ccc(CCC(O)=O)cc1,-2.2144,0.0,1,G1
B-1758,"2,4-d, butoxyethyl ester","InChI=1S/C14H18Cl2O4/c1-2-3-6-18-7-8-19-14(17)10-20-13-5-4-11(15)9-12(13)16/h4-5,9H,2-3,6-8,10H2,1H3",ZMWGIGHRZQTQRE-UHFFFAOYSA-N,CCCCOCCOC(=O)COc1ccc(Cl)cc1Cl,-4.4276,0.0,1,G1
B-1760,nitrapyrin,"InChI=1S/C6H3Cl4N/c7-5-3-1-2-4(11-5)6(8,9)10/h1-3H",DCUJJWWUNKIJPH-UHFFFAOYSA-N,Clc1cccc(n1)C(Cl)(Cl)Cl,-3.5061,0.1510417234482651,3,G5
B-1761,benzthiazuron,"InChI=1S/C9H9N3OS/c1-10-8(13)12-9-11-6-4-2-3-5-7(6)14-9/h2-5H,1H3,(H2,10,11,12,13)",DTCJYIIKPVRVDD-UHFFFAOYSA-N,CNC(=O)Nc1sc2ccccc2n1,-4.2373,0.0,1,G1
B-1762,chlorotrinitromethane,"InChI=1S/CClN3O6/c2-1(3(6)7,4(8)9)5(10)11",GNZCDDDPGSFZFG-UHFFFAOYSA-N,[O-][N+](=O)C(Cl)([N+]([O-])=O)[N+]([O-])=O,-1.9259,0.0,1,G1
B-1763,"1,2-cyclohexanediol, 1-methyl-4-(1-methylethenyl","InChI=1S/C10H18O2/c1-7(2)8-4-5-10(3,12)9(11)6-8/h8-9,11-12H,1,4-6H2,2-3H3",WKZWTZTZWGWEGE-UHFFFAOYSA-N,CC(=C)C1CCC(C)(O)C(O)C1,-0.2311,0.0,1,G1
B-1764,propane-1-thiosulfinic acid s-propyl ester,"InChI=1S/C6H14OS2/c1-3-5-8-9(7)6-4-2/h3-6H2,1-2H3",XPRZAEWSYWTDSQ-UHFFFAOYSA-N,CCCS[S](=O)CCC,-0.9199,0.0,1,G1
B-1765,"1,3-benzenedicarboxylic acid, 2-methoxy-","InChI=1S/C9H8O5/c1-14-7-5(8(10)11)3-2-4-6(7)9(12)13/h2-4H,1H3,(H,10,11)(H,12,13)",ZRWAPLTWCQQSAN-UHFFFAOYSA-N,COc1c(cccc1C(O)=O)C(O)=O,-2.2926,0.0,1,G1
B-1766,"propanoic acid, 4-nitrophenyl ester","InChI=1S/C9H9NO4/c1-2-9(11)14-8-5-3-7(4-6-8)10(12)13/h3-6H,2H2,1H3",DCQWRDUXRZSWHI-UHFFFAOYSA-N,CCC(=O)Oc1ccc(cc1)[N+]([O-])=O,-3.8925,0.0,1,G1
B-1767,"pentanoic acid, 4-nitrophenyl ester","InChI=1S/C11H13NO4/c1-2-3-4-11(13)16-10-7-5-9(6-8-10)12(14)15/h5-8H,2-4H2,1H3",RJQXEHRFVKJLJO-UHFFFAOYSA-N,CCCCC(=O)Oc1ccc(cc1)[N+]([O-])=O,-4.3945,0.0,1,G1
B-1768,p-dibutylterephthalate,"InChI=1S/C16H22O4/c1-3-5-11-19-15(17)13-7-9-14(10-8-13)16(18)20-12-6-4-2/h7-10H,3-6,11-12H2,1-2H3",LQLQDKBJAIILIQ-UHFFFAOYSA-N,CCCCOC(=O)c1ccc(cc1)C(=O)OCCCC,-5.4669,0.0,1,G1