ID,Name,InChI,InChIKey,SMILES,Solubility,SD,Occurrences,Group
D-703,"3,5-dichlorobenzoic acid","InChI=1S/C7H4Cl2O2/c8-5-1-4(7(10)11)2-6(9)3-5/h1-3H,(H,10,11)",CXKCZFDUOYMOOP-UHFFFAOYSA-N,OC(=O)c1cc(Cl)cc(Cl)c1,-3.114,0.0,1,G1
D-704,"3,4-dichlorobenzoic acid","InChI=1S/C7H4Cl2O2/c8-5-2-1-4(7(10)11)3-6(5)9/h1-3H,(H,10,11)",VPHHJAOJUJHJKD-UHFFFAOYSA-N,OC(=O)c1ccc(Cl)c(Cl)c1,-3.495,0.022499999999999964,2,G3
D-716,2-naphthoic acid,"InChI=1S/C11H8O2/c12-11(13)10-6-5-8-3-1-2-4-9(8)7-10/h1-7H,(H,12,13)",UOBYKYZJUGYBDK-UHFFFAOYSA-N,OC(=O)c1ccc2ccccc2c1,-3.5639999999999996,0.18300000000000027,2,G3
D-717,"benzoic acid, 4-(tert-butyl)-","InChI=1S/C11H14O2/c1-11(2,3)9-6-4-8(5-7-9)10(12)13/h4-7H,1-3H3,(H,12,13)",KDVYCTOWXSLNNI-UHFFFAOYSA-N,CC(C)(C)c1ccc(cc1)C(O)=O,-3.804,0.0,1,G1
D-719,3-aminobenzoic acid,"InChI=1S/C7H7NO2/c8-6-3-1-2-5(4-6)7(9)10/h1-4H,8H2,(H,9,10)",XFDUHJPVQKIXHO-UHFFFAOYSA-N,Nc1cccc(c1)C(O)=O,-1.3659999999999999,0.04200000000000004,2,G3
D-722,"3,4-dihydroxybenzoic acid","InChI=1S/C7H6O4/c8-5-2-1-4(7(10)11)3-6(5)9/h1-3,8-9H,(H,10,11)",YQUVCSBJEUQKSH-UHFFFAOYSA-N,OC(=O)c1ccc(O)c(O)c1,-0.9279999999999999,0.0,1,G1
D-725,p-methoxybenzoic acid,"InChI=1S/C8H8O3/c1-11-7-4-2-6(3-5-7)8(9)10/h2-5H,1H3,(H,9,10)",ZEYHEAKUIGZSGI-UHFFFAOYSA-N,COc1ccc(cc1)C(O)=O,-2.458,0.21599999999999997,2,G3
D-734,4-aminobenzoic acid,"InChI=1S/C7H7NO2/c8-6-3-1-5(2-4-6)7(9)10/h1-4H,8H2,(H,9,10)",ALYNCZNDIQEVRV-UHFFFAOYSA-N,Nc1ccc(cc1)C(O)=O,-1.351,0.45285047814433804,3,G5
D-735,"2,6-dihydroxybenzoic acid","InChI=1S/C7H6O4/c8-4-2-1-3-5(9)6(4)7(10)11/h1-3,8-9H,(H,10,11)",AKEUNCKRJATALU-UHFFFAOYSA-N,OC(=O)c1c(O)cccc1O,-1.207,0.0,1,G1
D-737,m-fluorobenzoic acid,"InChI=1S/C7H5FO2/c8-6-3-1-2-5(4-6)7(9)10/h1-4H,(H,9,10)",MXNBDFWNYRNIBH-UHFFFAOYSA-N,OC(=O)c1cccc(F)c1,-1.97,0.0,1,G1
D-741,m-chlorobenzoic acid,"InChI=1S/C7H5ClO2/c8-6-3-1-2-5(4-6)7(9)10/h1-4H,(H,9,10)",LULAYUGMBFYYEX-UHFFFAOYSA-N,OC(=O)c1cccc(Cl)c1,-2.541,0.024499999999999966,2,G3
D-745,m-bromobenzoic acid,"InChI=1S/C7H5BrO2/c8-6-3-1-2-5(4-6)7(9)10/h1-4H,(H,9,10)",VOIZNVUXCQLQHS-UHFFFAOYSA-N,OC(=O)c1cccc(Br)c1,-2.699,0.08550000000000013,2,G3
D-746,p-bromobenzoic acid,"InChI=1S/C7H5BrO2/c8-6-3-1-5(2-4-6)7(9)10/h1-4H,(H,9,10)",TUXYZHVUPGXXQG-UHFFFAOYSA-N,OC(=O)c1ccc(Br)cc1,-3.525,0.1625000000000001,2,G3
D-747,3-nitrophthalic acid,"InChI=1S/C8H5NO6/c10-7(11)4-2-1-3-5(9(14)15)6(4)8(12)13/h1-3H,(H,10,11)(H,12,13)",KFIRODWJCYBBHY-UHFFFAOYSA-N,OC(=O)c1cccc(c1C(O)=O)[N+]([O-])=O,-1.021,0.005499999999999949,2,G3
D-749,4-iodobenzoic acid,"InChI=1S/C7H5IO2/c8-6-3-1-5(2-4-6)7(9)10/h1-4H,(H,9,10)",GHICCUXQJBDNRN-UHFFFAOYSA-N,OC(=O)c1ccc(I)cc1,-3.963,0.03849999999999998,2,G3
D-750,4-dimethylaminobenzoic acid,"InChI=1S/C9H11NO2/c1-10(2)8-5-3-7(4-6-8)9(11)12/h3-6H,1-2H3,(H,11,12)",YDIYEOMDOWUDTJ-UHFFFAOYSA-N,CN(C)c1ccc(cc1)C(O)=O,-3.398,0.0,1,G1
D-754,methanol,"InChI=1S/CH4O/c1-2/h2H,1H3",OKKJLVBELUTLKV-UHFFFAOYSA-N,CO,1.494,0.038000000000000034,2,G3
D-759,t-butanol,"InChI=1S/C4H10O/c1-4(2,3)5/h5H,1-3H3",DKGAVHZHDRPRBM-UHFFFAOYSA-N,CC(C)(C)O,1.13,0.0,1,G1
D-761,2-methyl-2-butanol,"InChI=1S/C5H12O/c1-4-5(2,3)6/h6H,4H2,1-3H3",MSXVEPNJUHWQHW-UHFFFAOYSA-N,CCC(C)(C)O,0.096,0.029948103260288263,3,G5
D-762,isobutyl alcohol,"InChI=1S/C4H10O/c1-4(2)3-5/h4-5H,3H2,1-2H3",ZXEKIIBDNHEJCQ-UHFFFAOYSA-N,CC(C)CO,0.059000000000000004,0.025037749277618565,3,G5
D-763,2-butanol,"InChI=1S/C4H10O/c1-3-4(2)5/h4-5H,3H2,1-2H3",BTANRVKWQNVYAZ-UHFFFAOYSA-N,CCC(C)O,0.38799999999999996,0.09228590087331867,4,G5
D-766,benzyl alcohol,"InChI=1S/C7H8O/c8-6-7-4-2-1-3-5-7/h1-5,8H,6H2",WVDDGKGOMKODPV-UHFFFAOYSA-N,OCc1ccccc1,-0.43200000000000005,0.016000000000000014,2,G3
D-767,allyl alcohol,"InChI=1S/C3H6O/c1-2-3-4/h2,4H,1,3H2",XXROGKLTLUQVRX-UHFFFAOYSA-N,OCC=C,1.236,0.0,1,G1
D-768,propargylic alcohol,"InChI=1S/C3H4O/c1-2-3-4/h1,4H,3H2",TVDSBUOJIPERQY-UHFFFAOYSA-N,OCC#C,1.251,0.0,1,G1
D-775,2-methyl-3-butyn-2-ol,"InChI=1S/C5H8O/c1-4-5(2,3)6/h1,6H,2-3H3",CEBKHWWANWSNTI-UHFFFAOYSA-N,CC(C)(O)C#C,1.075,0.0,1,G1
D-782,2-fluoroethanol,"InChI=1S/C2H5FO/c3-1-2-4/h4H,1-2H2",GGDYAKVUZMZKRV-UHFFFAOYSA-N,OCCF,1.193,0.0,1,G1
D-792,2-nitroethanol,"InChI=1S/C2H5NO3/c4-2-1-3(5)6/h4H,1-2H2",KIPMDPDAFINLIV-UHFFFAOYSA-N,OCC[N+]([O-])=O,1.041,0.0,1,G1
D-793,2-hexanol,"InChI=1S/C6H14O/c1-3-4-5-6(2)7/h6-7H,3-5H2,1-2H3",QNVRIHYSUZMSGM-UHFFFAOYSA-N,CCCCC(C)O,-0.873,0.008500000000000008,2,G3
D-796,formaldehyde,InChI=1S/CH2O/c1-2/h1H2,WSFSSNUMVMOOMR-UHFFFAOYSA-N,C=O,1.121,0.0,1,G1
D-798,acetaldehyde,"InChI=1S/C2H4O/c1-2-3/h2H,1H3",IKHGUXGNUITLKF-UHFFFAOYSA-N,CC=O,1.3559999999999999,0.0,1,G1
D-799,trichloroacetaldehyde,"InChI=1S/C2HCl3O/c3-2(4,5)1-6/h1H",HFFLGKNGCAIQMO-UHFFFAOYSA-N,ClC(Cl)(Cl)C=O,-0.691,0.0,1,G1
D-802,benzaldehyde,InChI=1S/C7H6O/c8-6-7-4-2-1-3-5-7/h1-6H,HUMNYLRZRPPJDN-UHFFFAOYSA-N,O=Cc1ccccc1,-1.208,0.009000000000000008,2,G3
D-804,3-phenyl-2-propenal,InChI=1S/C9H8O/c10-8-4-7-9-5-2-1-3-6-9/h1-8H/b7-4+,KJPRLNWUNMBNBZ-QPJJXVBHSA-N,O=C/C=C/c1ccccc1,-1.969,0.0,1,G1
D-810,p-nitrobenzaldehyde,InChI=1S/C7H5NO3/c9-5-6-1-3-7(4-2-6)8(10)11/h1-5H,BXRFQSNOROATLV-UHFFFAOYSA-N,[O-][N+](=O)c1ccc(C=O)cc1,-1.81,0.0,1,G1
D-816,butyl benzyl phthalate,"InChI=1S/C19H20O4/c1-2-3-13-22-18(20)16-11-7-8-12-17(16)19(21)23-14-15-9-5-4-6-10-15/h4-12H,2-3,13-14H2,1H3",IRIAEXORFWYRCZ-UHFFFAOYSA-N,CCCCOC(=O)c1ccccc1C(=O)OCc2ccccc2,-5.065,0.28749999999999964,2,G3
D-817,"benzoic acid, methyl ester","InChI=1S/C8H8O2/c1-10-8(9)7-5-3-2-4-6-7/h2-6H,1H3",QPJVMBTYPHYUOC-UHFFFAOYSA-N,COC(=O)c1ccccc1,-1.8119999999999998,0.019000000000000128,2,G3
D-822,p-hydroxy propyl benzoate,"InChI=1S/C10H12O3/c1-2-7-13-10(12)8-3-5-9(11)6-4-8/h3-6,11H,2,7H2,1H3",QELSKZZBTMNZEB-UHFFFAOYSA-N,CCCOC(=O)c1ccc(O)cc1,-2.557,0.06150000000000011,2,G3
D-823,p-hydroxy butyl benzoate,"InChI=1S/C11H14O3/c1-2-3-8-14-11(13)9-4-6-10(12)7-5-9/h4-7,12H,2-3,8H2,1H3",QFOHBWFCKVYLES-UHFFFAOYSA-N,CCCCOC(=O)c1ccc(O)cc1,-2.972,0.16884180630269124,3,G5
D-826,ethyl methacrylate,"InChI=1S/C6H10O2/c1-4-8-6(7)5(2)3/h2,4H2,1,3H3",SUPCQIBBMFXVTL-UHFFFAOYSA-N,CCOC(=O)C(C)=C,-1.325,0.0,1,G1
D-827,"methacrylic acid, i-butyl","InChI=1S/C8H14O2/c1-6(2)5-10-8(9)7(3)4/h6H,3,5H2,1-2,4H3",RUMACXVDVNRZJZ-UHFFFAOYSA-N,CC(C)COC(=O)C(C)=C,-2.039,0.0,1,G1
D-828,"methacrylic acid, n-butyl","InChI=1S/C8H14O2/c1-4-5-6-10-8(9)7(2)3/h2,4-6H2,1,3H3",SOGAXMICEFXMKE-UHFFFAOYSA-N,CCCCOC(=O)C(C)=C,-2.25,0.0,1,G1
D-831,"cinnamic acid, ethyl ester","InChI=1S/C11H12O2/c1-2-13-11(12)9-8-10-6-4-3-5-7-10/h3-9H,2H2,1H3/b9-8+",KBEBGUQPQBELIU-CMDGGOBGSA-N,CCOC(=O)\C=C\c1ccccc1,-2.9960000000000004,0.0,1,G1
D-833,"n-methylcarbamic acid, ethyl ester","InChI=1S/C4H9NO2/c1-3-7-4(6)5-2/h3H2,1-2H3,(H,5,6)",SURZCVYFPAXNGN-UHFFFAOYSA-N,CCOC(=O)NC,0.826,0.0,1,G1
D-836,vinyl acetate,"InChI=1S/C4H6O2/c1-3-6-4(2)5/h3H,1H2,2H3",XTXRWKRVRITETP-UHFFFAOYSA-N,CC(=O)OC=C,-0.634,0.0,1,G1
D-837,propylene glycol me ether,"InChI=1S/C6H12O3/c1-5(4-8-3)9-6(2)7/h5H,4H2,1-3H3",LLHKCFNBLRBOGN-UHFFFAOYSA-N,COCC(C)OC(C)=O,0.17600000000000002,0.0,1,G1
D-838,triethyleneglycol dimethacrylate,"InChI=1S/C14H22O6/c1-11(2)13(15)19-9-7-17-5-6-18-8-10-20-14(16)12(3)4/h1,3,5-10H2,2,4H3",HWSSEYVMGDIFMH-UHFFFAOYSA-N,CC(=C)C(=O)OCCOCCOCCOC(=O)C(C)=C,-1.901,0.0,1,G1
D-844,methyl salicylate,"InChI=1S/C8H8O3/c1-11-8(10)6-4-2-3-5-7(6)9/h2-5,9H,1H3",OSWPMRLSEDHDFF-UHFFFAOYSA-N,COC(=O)c1ccccc1O,-1.3130000000000002,0.5134999999999998,2,G2
D-845,"p-hydroxybenzoic acid,ethyl ester","InChI=1S/C9H10O3/c1-2-12-9(11)7-3-5-8(10)6-4-7/h3-6,10H,2H2,1H3",NUVBSKCKDOMJSU-UHFFFAOYSA-N,CCOC(=O)c1ccc(O)cc1,-2.309,0.0632999912234503,3,G5
D-850,dimethyl phthalate,"InChI=1S/C10H10O4/c1-13-9(11)7-5-3-4-6-8(7)10(12)14-2/h3-6H,1-2H3",NIQCNGHVCWTJSM-UHFFFAOYSA-N,COC(=O)c1ccccc1C(=O)OC,-1.686,0.013000000000000012,2,G3
D-851,dipropyl phthalate,"InChI=1S/C14H18O4/c1-3-9-17-13(15)11-7-5-6-8-12(11)14(16)18-10-4-2/h5-8H,3-4,9-10H2,1-2H3",MQHNKCZKNAJROC-UHFFFAOYSA-N,CCCOC(=O)c1ccccc1C(=O)OCCC,-3.365,0.0,1,G1
D-853,phenyl-4-aminosalicylate,"InChI=1S/C13H11NO3/c14-9-6-7-11(12(15)8-9)13(16)17-10-4-2-1-3-5-10/h1-8,15H,14H2",DNVVZWSVACQWJE-UHFFFAOYSA-N,Nc1ccc(c(O)c1)C(=O)Oc2ccccc2,-4.515,0.0,1,G1
D-855,benzyl acetate,"InChI=1S/C9H10O2/c1-8(10)11-7-9-5-3-2-4-6-9/h2-6H,7H2,1H3",QUKGYYKBILRGFE-UHFFFAOYSA-N,CC(=O)OCc1ccccc1,-1.685,0.0,1,G1
D-857,butyl acrylate,"InChI=1S/C7H12O2/c1-3-5-6-9-7(8)4-2/h4H,2-3,5-6H2,1H3",CQEYYJKEWSMYFG-UHFFFAOYSA-N,CCCCOC(=O)C=C,-1.807,0.0,1,G1
D-859,acetoacetic ester,"InChI=1S/C6H10O3/c1-3-9-6(8)4-5(2)7/h3-4H2,1-2H3",XYIBRDXRRQCHLP-UHFFFAOYSA-N,CCOC(=O)CC(C)=O,-0.073,0.0,1,G1
D-861,t-butyl methacrylate,"InChI=1S/C8H14O2/c1-6(2)7(9)10-8(3,4)5/h1H2,2-5H3",SJMYWORNLPSJQO-UHFFFAOYSA-N,CC(=C)C(=O)OC(C)(C)C,-2.153,0.0,1,G1
D-862,di-i-propyl phthalate,"InChI=1S/C14H18O4/c1-9(2)17-13(15)11-7-5-6-8-12(11)14(16)18-10(3)4/h5-10H,1-4H3",QWDBCIAVABMJPP-UHFFFAOYSA-N,CC(C)OC(=O)c1ccccc1C(=O)OC(C)C,-2.877,0.0,1,G1
D-864,2-hydroxyethyl acrylate,"InChI=1S/C5H8O3/c1-2-5(7)8-4-3-6/h2,6H,1,3-4H2",OMIGHNLMNHATMP-UHFFFAOYSA-N,OCCOC(=O)C=C,0.935,0.0,1,G1
D-865,2-hydroxyethyl methacrylat,"InChI=1S/C6H10O3/c1-5(2)6(8)9-4-3-7/h7H,1,3-4H2,2H3",WOBHKFSMXKNTIM-UHFFFAOYSA-N,CC(=C)C(=O)OCCO,-0.114,0.0,1,G1
D-866,"ethanol, 2-bromo-, acetate","InChI=1S/C4H7BrO2/c1-4(6)7-3-2-5/h2-3H2,1H3",RGHQKFQZGLKBCF-UHFFFAOYSA-N,CC(=O)OCCBr,-0.674,0.0,1,G1
D-867,2-hydroxypropyl acrylate,"InChI=1S/C6H10O3/c1-3-6(8)9-4-5(2)7/h3,5,7H,1,4H2,2H3",GWZMWHWAWHPNHN-UHFFFAOYSA-N,CC(O)COC(=O)C=C,0.8859999999999999,0.0,1,G1
D-869,alpha-glucose pentaacetate,"InChI=1S/C16H22O11/c1-8(18)23-7-14(25-10(3)20)16(27-12(5)22)15(26-11(4)21)13(6-17)24-9(2)19/h6,13-16H,7H2,1-5H3/t13-,14+,15+,16+/m0/s1",UAOKXEHOENRFMP-ZJIFWQFVSA-N,CC(=O)OC[C@@H](OC(C)=O)[C@@H](OC(C)=O)[C@H](OC(C)=O)[C@@H](OC(C)=O)C=O,-2.415,0.0,1,G1
D-870,"benzoic acid, 4-amino-,pentyl ester","InChI=1S/C12H17NO2/c1-2-3-4-9-15-12(14)10-5-7-11(13)8-6-10/h5-8H,2-4,9,13H2,1H3",VKYWCHMXHQTCJQ-UHFFFAOYSA-N,CCCCCOC(=O)c1ccc(N)cc1,-3.35,0.21296843793284387,3,G5
D-873,acetone,InChI=1S/C3H6O/c1-3(2)4/h1-2H3,CSCPPACGZOOCGX-UHFFFAOYSA-N,CC(C)=O,1.236,0.0,1,G1
D-874,p-hydroxypropiophenone,"InChI=1S/C9H10O2/c1-2-9(11)7-3-5-8(10)6-4-7/h3-6,10H,2H2,1H3",RARSHUDCJQSEFJ-UHFFFAOYSA-N,CCC(=O)c1ccc(O)cc1,-2.639,0.0,1,G1
D-876,2-butanone,"InChI=1S/C4H8O/c1-3-4(2)5/h3H2,1-2H3",ZWEHNKRNPOVVGH-UHFFFAOYSA-N,CCC(C)=O,0.49,0.015000000000000013,2,G3
D-880,acetophenone,"InChI=1S/C8H8O/c1-7(9)8-5-3-2-4-6-8/h2-6H,1H3",KWOLFJPFCHCOCG-UHFFFAOYSA-N,CC(=O)c1ccccc1,-1.2919999999999998,0.005999999999999894,2,G3
D-884,2-pentanone,"InChI=1S/C5H10O/c1-3-4-5(2)6/h3-4H2,1-2H3",XNLICIUVMPYHGG-UHFFFAOYSA-N,CCCC(C)=O,-0.302,0.055999999999999994,2,G3
D-889,2-octanone,"InChI=1S/C8H16O/c1-3-4-5-6-7-8(2)9/h3-7H2,1-2H3",ZPVFWPFBNIEHGJ-UHFFFAOYSA-N,CCCCCCC(C)=O,-2.154,0.052000000000000046,2,G3
D-891,hydroquinone,"InChI=1S/C6H6O2/c7-5-1-2-6(8)4-3-5/h1-4,7-8H",QIGBRXMKCJKVMJ-UHFFFAOYSA-N,Oc1ccc(O)cc1,-0.184,0.14294987466474626,3,G5
D-893,"2,3-butanedione",InChI=1S/C4H6O2/c1-3(5)4(2)6/h1-2H3,QSJXEFYPDANLFS-UHFFFAOYSA-N,CC(=O)C(C)=O,0.366,0.0,1,G1
D-894,3-methyl-2-butanone,"InChI=1S/C5H10O/c1-4(2)5(3)6/h4H,1-3H3",SYBYTAAJFKOIEJ-UHFFFAOYSA-N,CC(C)C(C)=O,-0.151,0.0155,2,G3
D-898,ethylene oxide,InChI=1S/C2H4O/c1-2-3-1/h1-2H2,IAYPIBMASNFSPL-UHFFFAOYSA-N,C1CO1,1.3559999999999999,0.0,1,G1
D-899,propylene oxide,"InChI=1S/C3H6O/c1-3-2-4-3/h3H,2H2,1H3",GOOHAUXETOMSMM-UHFFFAOYSA-N,CC1CO1,1.0070000000000001,0.7985,2,G2
D-901,"1-chloro-2,3-epoxypropane","InChI=1S/C3H5ClO/c4-1-3-2-5-3/h3H,1-2H2",BRLQWZUYTZBJKN-UHFFFAOYSA-N,ClCC1CO1,-0.147,0.0,1,G1
D-902,glycidol,"InChI=1S/C3H6O2/c4-1-3-2-5-3/h3-4H,1-2H2",CTKINSOISVBQLD-UHFFFAOYSA-N,OCC1CO1,1.13,0.0,1,G1
D-903,diepoxybutane,"InChI=1S/C4H6O2/c1-3(5-1)4-2-6-4/h3-4H,1-2H2",ZFIVKAOQEXOYFY-UHFFFAOYSA-N,C1OC1C2CO2,1.065,0.0,1,G1
D-905,"2,2,2-trifluoroethanol","InChI=1S/C2H3F3O/c3-2(4,5)1-6/h6H,1H2",RHQDFWAXVIIEBN-UHFFFAOYSA-N,OCC(F)(F)F,1.0,0.0,1,G1
D-906,2-chloroethanol,"InChI=1S/C2H5ClO/c3-1-2-4/h4H,1-2H2",SZIFAVKTNFCBPC-UHFFFAOYSA-N,OCCCl,1.094,0.0,1,G1
D-907,"2,2,2-trichloroethanol","InChI=1S/C2H3Cl3O/c3-2(4,5)1-6/h6H,1H2",KPWDGTGXUYRARH-UHFFFAOYSA-N,OCC(Cl)(Cl)Cl,-0.254,0.0,1,G1
D-908,2-bromoethanol,"InChI=1S/C2H5BrO/c3-1-2-4/h4H,1-2H2",LDLCZOVUSADOIV-UHFFFAOYSA-N,OCCBr,0.903,0.0,1,G1
D-909,hydrocyanic acid,InChI=1S/CHN/c1-2/h1H,LELOWRISYMNNSU-UHFFFAOYSA-N,C#N,1.568,0.0,1,G1
D-912,propionitrile,"InChI=1S/C3H5N/c1-2-3-4/h2H2,1H3",FVSKHRXBFJPNKK-UHFFFAOYSA-N,CCC#N,0.272,0.0,1,G1
D-914,butyronitrile,"InChI=1S/C4H7N/c1-2-3-4-5/h2-3H2,1H3",KVNRLNFWIYMESJ-UHFFFAOYSA-N,CCCC#N,-0.321,0.0,1,G1
D-917,adiponitrile,InChI=1S/C6H8N2/c7-5-3-1-2-4-6-8/h1-4H2,BTGRAWJCKBQKAO-UHFFFAOYSA-N,N#CCCCCC#N,-0.131,0.0,1,G1
D-918,methacrylonitrile,"InChI=1S/C4H5N/c1-4(2)3-5/h1H2,2H3",GYCMBHHDWRMZGG-UHFFFAOYSA-N,CC(=C)C#N,-0.42200000000000004,0.0,1,G1
D-919,pentanedinitrile,InChI=1S/C5H6N2/c6-4-2-1-3-5-7/h1-3H2,ZTOMUSMDRMJOTH-UHFFFAOYSA-N,N#CCCCC#N,1.026,0.0,1,G1
D-920,"2,6-dichlorobenzonitrile",InChI=1S/C7H3Cl2N/c8-6-2-1-3-7(9)5(6)4-10/h1-3H,YOYAIZYFCNQIRF-UHFFFAOYSA-N,Clc1cccc(Cl)c1C#N,-3.98,0.13000000000000012,2,G3
D-924,theophylline,"InChI=1S/C7H8N4O2/c1-10-5-4(8-3-9-5)6(12)11(2)7(10)13/h3H,1-2H3,(H,8,9)",ZFXYFBGIUFBOJW-UHFFFAOYSA-N,CN1C(=O)N(C)c2nc[nH]c2C1=O,-1.389,0.019499999999999962,2,G3
D-925,2-(1h)-quinolinone,"InChI=1S/C9H7NO/c11-9-6-5-7-3-1-2-4-8(7)10-9/h1-6H,(H,10,11)",LISFMEBWQUVKPJ-UHFFFAOYSA-N,O=C1Nc2ccccc2C=C1,-2.1390000000000002,0.0,1,G1
D-926,creatinine,"InChI=1S/C4H7N3O/c1-7-2-3(8)6-4(7)5/h2H2,1H3,(H2,5,6,8)",DDRJAANPRJIHGJ-UHFFFAOYSA-N,CN1CC(=O)N=C1N,-0.15,0.0,1,G1
D-930,cycloheximide,"InChI=1S/C15H23NO4/c1-8-3-9(2)15(20)11(4-8)12(17)5-10-6-13(18)16-14(19)7-10/h8-12,17H,3-7H2,1-2H3,(H,16,18,19)/t8-,9-,11-,12+/m0/s1",YPHMISFOHDHNIV-FSZOTQKASA-N,C[C@H]1C[C@H](C)C(=O)[C@@H](C1)[C@H](O)CC2CC(=O)NC(=O)C2,-1.127,0.0,1,G1
D-931,trichloronitromethane,"InChI=1S/CCl3NO2/c2-1(3,4)5(6)7",LFHISGNCFUNFFM-UHFFFAOYSA-N,[O-][N+](=O)C(Cl)(Cl)Cl,-2.006,0.0,1,G1
D-933,isosorbide dinitrate,"InChI=1S/C6H8N2O8/c9-7(10)15-3-1-13-6-4(16-8(11)12)2-14-5(3)6/h3-6H,1-2H2/t3-,4+,5-,6-/m1/s1",MOYKHGMNXAOIAT-JGWLITMVSA-N,[O-][N+](=O)O[C@H]1CO[C@@H]2[C@@H](CO[C@H]12)O[N+]([O-])=O,-2.633,0.0,1,G1
D-935,phenylpropylmethylamine,"InChI=1S/C10H15N/c1-9(8-11-2)10-6-4-3-5-7-10/h3-7,9,11H,8H2,1-2H3",AUFSOOYCQYDGES-UHFFFAOYSA-N,CNCC(C)c1ccccc1,-1.095,0.0,1,G1
D-942,maleic hydrazide,"InChI=1S/C4H4N2O2/c7-3-1-2-4(8)6-5-3/h1-2H,(H,5,7)(H,6,8)",BGRDGMRNKXEXQD-UHFFFAOYSA-N,O=C1NNC(=O)C=C1,-1.271,0.1595000000000001,2,G3
D-949,n-nitrosopyrrolidine,InChI=1S/C4H8N2O/c7-5-6-3-1-2-4-6/h1-4H2,WNYADZVDBIBLJJ-UHFFFAOYSA-N,O=NN1CCCC1,0.9990000000000001,0.0,1,G1
D-950,1-lauryl-2-pyrrolodone,"InChI=1S/C16H31NO/c1-2-3-4-5-6-7-8-9-10-11-14-17-15-12-13-16(17)18/h2-15H2,1H3",NJPQAIBZIHNJDO-UHFFFAOYSA-N,CCCCCCCCCCCCN1CCCC1=O,-4.67,0.0,1,G1
D-951,1-lauryl-4-carboxy-2-pyrrolodone,"InChI=1S/C17H31NO3/c1-2-3-4-5-6-7-8-9-10-11-12-18-14-15(17(20)21)13-16(18)19/h15H,2-14H2,1H3,(H,20,21)",ZNQTZHTYSHEJLH-UHFFFAOYSA-N,CCCCCCCCCCCCN1CC(CC1=O)C(O)=O,-3.2230000000000003,0.0,1,G1
D-952,1-methyl-4-carboxy-2-pyrrolodone,"InChI=1S/C6H9NO3/c1-7-3-4(6(9)10)2-5(7)8/h4H,2-3H2,1H3,(H,9,10)",YHDZDIPQCVCIJS-UHFFFAOYSA-N,CN1CC(CC1=O)C(O)=O,-0.9540000000000001,0.0,1,G1
D-954,1-methyl-4-methoxycarbonyl,"InChI=1S/C7H11NO3/c1-8-4-5(3-6(8)9)7(10)11-2/h5H,3-4H2,1-2H3",JFZRRXGXEHUJCI-UHFFFAOYSA-N,COC(=O)C1CN(C)C(=O)C1,0.804,0.0,1,G1
D-956,1-hexyl-4-methoxycarbonyl-,"InChI=1S/C12H21NO3/c1-3-4-5-6-7-13-9-10(8-11(13)14)12(15)16-2/h10H,3-9H2,1-2H3",GJHNTLQYACBIND-UHFFFAOYSA-N,CCCCCCN1CC(CC1=O)C(=O)OC,-1.246,0.0,1,G1
D-957,nicotine,"InChI=1S/C10H14N2/c1-12-7-3-5-10(12)9-4-2-6-11-8-9/h2,4,6,8,10H,3,5,7H2,1H3/t10-/m0/s1",SNICXCGAKADSCV-JTQLQIEISA-N,CN1CCC[C@H]1c2cccnc2,0.79,0.0,1,G1
D-962,2-ethylpyridine,"InChI=1S/C7H9N/c1-2-7-5-3-4-6-8-7/h3-6H,2H2,1H3",NRGGMCIBEHEAIL-UHFFFAOYSA-N,CCc1ccccn1,0.501,0.0,1,G1
D-964,"2,4,6-collidine","InChI=1S/C8H11N/c1-6-4-7(2)9-8(3)5-6/h4-5H,1-3H3",BWZVCCNYKMEVEX-UHFFFAOYSA-N,Cc1cc(C)nc(C)c1,-0.539,0.0,1,G1
D-965,4-methylpyridine,"InChI=1S/C6H7N/c1-6-2-4-7-5-3-6/h2-5H,1H3",FKNQCJSGGFJEIZ-UHFFFAOYSA-N,Cc1ccncc1,1.031,0.0,1,G1
D-966,3-methylpyridine,"InChI=1S/C6H7N/c1-6-3-2-4-7-5-6/h2-5H,1H3",ITQTTZVARXURQS-UHFFFAOYSA-N,Cc1cccnc1,1.031,0.0,1,G1
D-968,2-bromopyridine,InChI=1S/C5H4BrN/c6-5-3-1-2-4-7-5/h1-4H,IMRWILPUOVGIMU-UHFFFAOYSA-N,Brc1ccccn1,-0.8809999999999999,0.0,1,G1
D-969,2-methylpyridine,"InChI=1S/C6H7N/c1-6-4-2-3-5-7-6/h2-5H,1H3",BSKHPKMHTQYZBB-UHFFFAOYSA-N,Cc1ccccn1,1.031,0.0,1,G1
D-970,2-chloropyridine,InChI=1S/C5H4ClN/c6-5-3-1-2-4-7-5/h1-4H,OKDGRDCXVWSXDC-UHFFFAOYSA-N,Clc1ccccn1,-0.754,0.0,1,G1
D-975,2-methylpyrazine,"InChI=1S/C5H6N2/c1-5-4-6-2-3-7-5/h2-4H,1H3",CAWHJQAVHZEVTJ-UHFFFAOYSA-N,Cc1cnccn1,1.026,0.0,1,G1
D-978,phenobarital,"InChI=1S/C12H12N2O3/c1-2-12(8-6-4-3-5-7-8)9(15)13-11(17)14-10(12)16/h3-7H,2H2,1H3,(H2,13,14,15,16,17)",DDBREPKUVSBGFI-UHFFFAOYSA-N,CCC1(C(=O)NC(=O)NC1=O)c2ccccc2,-2.3209999999999997,0.02907210862665455,4,G5
D-981,cocaine,"InChI=1S/C17H21NO4/c1-18-12-8-9-13(18)15(17(20)21-2)14(10-12)22-16(19)11-6-4-3-5-7-11/h3-7,12-15H,8-10H2,1-2H3/t12?,13?,14-,15+/m0/s1",ZPUCINDJVBIVPJ-PFSRBDOWSA-N,COC(=O)[C@H]1[C@H](CC2CCC1N2C)OC(=O)c3ccccc3,-2.227,0.0,1,G1
D-987,pencillamine,"InChI=1S/C5H11NO2S/c1-5(2,9)3(6)4(7)8/h3,9H,6H2,1-2H3,(H,7,8)/t3-/m0/s1",VVNCNSJFMMFHPL-VKHMYHEASA-N,CC(C)(S)[C@@H](N)C(O)=O,-0.128,0.0,1,G1
D-991,des,"InChI=1S/C18H20O2/c1-3-17(13-5-9-15(19)10-6-13)18(4-2)14-7-11-16(20)12-8-14/h5-12,19-20H,3-4H2,1-2H3/b18-17+",RGLYKWWBQGJZGM-ISLYRVAYSA-N,CC\C(c1ccc(O)cc1)=C(\CC)c2ccc(O)cc2,-4.35,0.13999999999999968,2,G3
D-993,strychnine,"InChI=1S/C21H22N2O2/c24-18-10-16-19-13-9-17-21(6-7-22(17)11-12(13)5-8-25-16)14-3-1-2-4-15(14)23(18)20(19)21/h1-5,13,16-17,19-20H,6-11H2/t13-,16-,17-,19-,20-,21+/m0/s1",QMGVPVSNSZLJIA-FVWCLLPLSA-N,O=C1C[C@@H]2OCC=C3CN4CC[C@@]56[C@@H]4C[C@@H]3[C@@H]2[C@@H]5N1c7ccccc67,-3.32,0.0,1,G1
D-1004,nikethamide,"InChI=1S/C10H14N2O/c1-3-12(4-2)10(13)9-6-5-7-11-8-9/h5-8H,3-4H2,1-2H3",NCYVXEGFNDZQCU-UHFFFAOYSA-N,CCN(CC)C(=O)c1cccnc1,0.7490000000000001,0.0,1,G1
D-1010,chlormerodrin,"InChI=1S/C5H11N2O2.ClH.Hg/c1-4(9-2)3-7-5(6)8;;/h4H,1,3H2,2H3,(H3,6,7,8);1H;/q;;+1/p-1",BJFGVYCULWBXKF-UHFFFAOYSA-M,[Cl-].COC(C[Hg+])CNC(N)=O,-1.524,0.0,1,G1
D-1023,"1,1-diox-1,2-benzisothiazol-3-one","InChI=1S/C7H5NO3S/c9-7-5-3-1-2-4-6(5)12(10,11)8-7/h1-4H,(H,8,9)",CVHZOJJKTDOEJC-UHFFFAOYSA-N,O=C1N[S](=O)(=O)c2ccccc12,-1.661,0.03844476557348219,3,G5
D-1024,theobromine,"InChI=1S/C7H8N4O2/c1-10-3-8-5-4(10)6(12)9-7(13)11(5)2/h3H,1-2H3,(H,9,12,13)",YAPQBXQYLJRXSA-UHFFFAOYSA-N,Cn1cnc2N(C)C(=O)NC(=O)c12,-2.737,0.32770142236832317,3,G5
D-1036,griseofulvin,"InChI=1S/C17H19ClO6/c1-8-5-9(19)6-12(23-4)17(8)16(20)13-10(21-2)7-11(22-3)14(18)15(13)24-17/h7-8,12H,5-6H2,1-4H3/t8-,12?,17+/m1/s1",IIUZTXTZRGLYTI-LKUJNTHKSA-N,COC1CC(=O)C[C@@H](C)[C@]12Oc3c(Cl)c(OC)cc(OC)c3C2=O,-4.611000000000001,0.0,1,G1
D-1040,salicin,"InChI=1S/C13H18O7/c14-5-7-3-1-2-4-8(7)19-13-12(18)11(17)10(16)9(6-15)20-13/h1-4,9-18H,5-6H2/t9-,10-,11+,12-,13-/m1/s1",NGFMICBWJRZIBI-UJPOAAIJSA-N,OC[C@H]1O[C@@H](Oc2ccccc2CO)[C@H](O)[C@@H](O)[C@@H]1O,-0.855,0.0,1,G1
D-1044,ephedrine,"InChI=1S/C10H15NO/c1-8(11-2)10(12)9-6-4-3-5-7-9/h3-8,10-12H,1-2H3/t8-,10-/m0/s1",KWGRBVOPPLSCSI-WPRPVWTQSA-N,CN[C@@H](C)[C@H](O)c1ccccc1,-0.415,0.0,1,G1
D-1045,allopurinol,"InChI=1S/C5H4N4O/c10-5-3-1-8-9-4(3)6-2-7-5/h1-2H,(H2,6,7,8,9,10)",OFCNXPDARWKPPY-UHFFFAOYSA-N,O=C1N=CN=C2NNC=C12,-2.379,0.07576718726907232,3,G5
D-1047,brucine,"InChI=1S/C23H26N2O4/c1-27-16-8-14-15(9-17(16)28-2)25-20(26)10-18-21-13-7-19-23(14,22(21)25)4-5-24(19)11-12(13)3-6-29-18/h3,8-9,13,18-19,21-22H,4-7,10-11H2,1-2H3/t13-,18?,19-,21-,22?,23+/m0/s1",RRKTZKIUPZVBMF-PLNGPGDESA-N,COc1cc2N3C4[C@@H]5C(CC3=O)OCC=C6CN7CC[C@]4([C@@H]7C[C@H]56)c2cc1OC,-2.0909999999999997,0.0,1,G1
D-1052,eriodictyol,"InChI=1S/C15H12O6/c16-8-4-11(19)15-12(20)6-13(21-14(15)5-8)7-1-2-9(17)10(18)3-7/h1-5,13,16-19H,6H2/t13-/m0/s1",SBHXYTNGIZCORC-ZDUSSCGKSA-N,Oc1cc(O)c2C(=O)C[C@H](Oc2c1)c3ccc(O)c(O)c3,-3.615,0.0,1,G1
D-1061,"5,5-dipropylbarbituric acid","InChI=1S/C10H16N2O3/c1-3-5-10(6-4-2)7(13)11-9(15)12-8(10)14/h3-6H2,1-2H3,(H2,11,12,13,14,15)",RCOUWKSZRXJXLA-UHFFFAOYSA-N,CCCC1(CCC)C(=O)NC(=O)NC1=O,-2.549,0.0,1,G1