ID,Name,InChI,InChIKey,SMILES,Solubility,SD,Occurrences,Group
D-1253,"1,2,3,7-tetrachlorodibenzodioxin",InChI=1S/C12H4Cl4O2/c13-5-1-2-7-8(3-5)17-9-4-6(14)10(15)11(16)12(9)18-7/h1-4H,SKGXYFVQZVPEFP-UHFFFAOYSA-N,Clc1ccc2Oc3c(Cl)c(Cl)c(Cl)cc3Oc2c1,-8.874,0.008000000000000007,2,G3
D-1266,m-nitroanisole,"InChI=1S/C7H7NO3/c1-11-7-4-2-3-6(5-7)8(9)10/h2-5H,1H3",WGYFINWERLNPHR-UHFFFAOYSA-N,COc1cccc(c1)[N+]([O-])=O,-2.4859999999999998,0.0,1,G1
D-1267,"1,3-dino2 2-methyl benzene","InChI=1S/C7H6N2O4/c1-5-6(8(10)11)3-2-4-7(5)9(12)13/h2-4H,1H3",XTRDKALNCIHHNI-UHFFFAOYSA-N,Cc1c(cccc1[N+]([O-])=O)[N+]([O-])=O,-3.0,0.0,1,G1
D-1268,"1,2-dino2 4-methyl benzene","InChI=1S/C7H6N2O4/c1-5-2-3-6(8(10)11)7(4-5)9(12)13/h2-4H,1H3",INYDMNPNDHRJQJ-UHFFFAOYSA-N,Cc1ccc(c(c1)[N+]([O-])=O)[N+]([O-])=O,-3.26,0.0,1,G1
D-1269,o-ethyl carbamate (urethane),"InChI=1S/C3H7NO2/c1-2-6-3(4)5/h2H2,1H3,(H2,4,5)",JOYRKODLDBILNP-UHFFFAOYSA-N,CCOC(N)=O,0.731,0.0595,2,G3
D-1271,"n,n'-dimethylformamide","InChI=1S/C3H7NO/c1-4(2)3-5/h3H,1-2H3",ZMXDDKWLCZADIW-UHFFFAOYSA-N,CN(C)C=O,1.136,0.0,1,G1
D-1272,formamide,"InChI=1S/CH3NO/c2-1-3/h1H,(H2,2,3)",ZHNUHDYFZUAESO-UHFFFAOYSA-N,NC=O,1.3459999999999999,0.0,1,G1
D-1275,n-methylacetamide,"InChI=1S/C3H7NO/c1-3(5)4-2/h1-2H3,(H,4,5)",OHLUUHNLEMFGTQ-UHFFFAOYSA-N,CNC(C)=O,1.136,0.0,1,G1
D-1277,caprolactam,"InChI=1S/C6H11NO/c8-6-4-2-1-3-5-7-6/h1-5H2,(H,7,8)",JBKVHLHDHHXQEQ-UHFFFAOYSA-N,O=C1CCCCCN1,0.8340000000000001,0.0,1,G1
D-1278,"n,n'-dimethylacetamide",InChI=1S/C4H9NO/c1-4(6)5(2)3/h1-3H3,FXHOOIRPVKKKFG-UHFFFAOYSA-N,CN(C)C(C)=O,1.06,0.025000000000000022,2,G3
D-1279,butyramide,"InChI=1S/C4H9NO/c1-2-3-4(5)6/h2-3H2,1H3,(H2,5,6)",DNSISZSEWVHGLH-UHFFFAOYSA-N,CCCC(N)=O,0.272,0.0,1,G1
D-1280,fluoroacetamide,"InChI=1S/C2H4FNO/c3-1-2(4)5/h1H2,(H2,4,5)",FVTWJXMFYOXOKK-UHFFFAOYSA-N,NC(=O)CF,1.113,0.0,1,G1
D-1283,"1,3-bis(2-chloroet)-1-nitrosourea","InChI=1S/C5H9Cl2N3O2/c6-1-3-8-5(11)10(9-12)4-2-7/h1-4H2,(H,8,11)",DLGOEMSEDOSKAD-UHFFFAOYSA-N,ClCCNC(=O)N(CCCl)N=O,-1.7280000000000002,0.0,1,G1
D-1289,nitromethane,InChI=1S/CH3NO2/c1-2(3)4/h1H3,LYGJENNIWJXYER-UHFFFAOYSA-N,C[N+]([O-])=O,0.26,0.0,1,G1
D-1293,"glycerol 1,3-dinitrate","InChI=1S/C3H6N2O7/c6-3(1-11-4(7)8)2-12-5(9)10/h3,6H,1-2H2",ASIGVDLTBLZXNC-UHFFFAOYSA-N,OC(CO[N+]([O-])=O)CO[N+]([O-])=O,-0.366,0.0,1,G1
D-1294,1-nitrobutane,"InChI=1S/C4H9NO2/c1-2-3-4-5(6)7/h2-4H2,1H3",NALZTFARIYUCBY-UHFFFAOYSA-N,CCCC[N+]([O-])=O,-1.351,0.0,1,G1
D-1295,1-nitropentane,"InChI=1S/C5H11NO2/c1-2-3-4-5-6(7)8/h2-5H2,1H3",BVALZCVRLDMXOQ-UHFFFAOYSA-N,CCCCC[N+]([O-])=O,-1.955,0.0,1,G1
D-1296,ethylene glycol dinitrate,InChI=1S/C2H4N2O6/c5-3(6)9-1-2-10-4(7)8/h1-2H2,UQXKXGWGFRWILX-UHFFFAOYSA-N,[O-][N+](=O)OCCO[N+]([O-])=O,-1.35,0.0,1,G1
D-1300,m-methylbenzenesulfonamide,"InChI=1S/C7H9NO2S/c1-6-3-2-4-7(5-6)11(8,9)10/h2-5H,1H3,(H2,8,9,10)",NVZINPVISUVPHW-UHFFFAOYSA-N,Cc1cccc(c1)[S](N)(=O)=O,-1.341,0.0,1,G1
D-1301,"benzenesulfonamide, 4-(3-hydroxypropyl)-","InChI=1S/C9H13NO3S/c10-14(12,13)9-5-3-8(4-6-9)2-1-7-11/h3-6,11H,1-2,7H2,(H2,10,12,13)",NSNHWGDFYDLMBS-UHFFFAOYSA-N,N[S](=O)(=O)c1ccc(CCCO)cc1,-1.032,0.0,1,G1
D-1302,"benzenesulfonamide, 4-(4-hydroxybutyl)-","InChI=1S/C10H15NO3S/c11-15(13,14)10-6-4-9(5-7-10)3-1-2-8-12/h4-7,12H,1-3,8H2,(H2,11,13,14)",NCRQTZXHMKBWLU-UHFFFAOYSA-N,N[S](=O)(=O)c1ccc(CCCCO)cc1,-1.193,0.0,1,G1
D-1303,"benzenesulfonamide, 4-(5-hydroxypentyl)-","InChI=1S/C11H17NO3S/c12-16(14,15)11-7-5-10(6-8-11)4-2-1-3-9-13/h5-8,13H,1-4,9H2,(H2,12,14,15)",KFRDUIZQGPSJJM-UHFFFAOYSA-N,N[S](=O)(=O)c1ccc(CCCCCO)cc1,-1.9709999999999999,0.0,1,G1
D-1310,"benzoic acid, 2-(aco)-,(me","InChI=1S/C11H12O4S/c1-8(12)15-10-6-4-3-5-9(10)11(13)14-7-16-2/h3-6H,7H2,1-2H3",YFFMJOPTIBTOJH-UHFFFAOYSA-N,CSCOC(=O)c1ccccc1OC(C)=O,-2.64,0.0,1,G1
D-1320,"l-proline, n-[(benzoyloxy)acetyl]-","InChI=1S/C14H15NO5/c16-12(15-8-4-7-11(15)13(17)18)9-20-14(19)10-5-2-1-3-6-10/h1-3,5-6,11H,4,7-9H2,(H,17,18)/t11-/m0/s1",GZXGHZDSFNQRKK-NSHDSACASA-N,OC(=O)[C@@H]1CCCN1C(=O)COC(=O)c2ccccc2,-1.5919999999999999,0.0,1,G1
D-1323,"acetamide, 2-(benzoyloxy)-n-hexyl-","InChI=1S/C15H21NO3/c1-2-3-4-8-11-16-14(17)12-19-15(18)13-9-6-5-7-10-13/h5-7,9-10H,2-4,8,11-12H2,1H3,(H,16,17)",ZTEWWPFYEDRRRL-UHFFFAOYSA-N,CCCCCCNC(=O)COC(=O)c1ccccc1,-3.9019999999999997,0.0,1,G1
D-1324,diethyl carbonate,"InChI=1S/C5H10O3/c1-3-7-5(6)8-4-2/h3-4H2,1-2H3",OIFBSDVPJOWBCH-UHFFFAOYSA-N,CCOC(=O)OCC,-0.7979999999999999,0.0,1,G1
D-1325,maltol,"InChI=1S/C6H6O3/c1-4-6(8)5(7)2-3-9-4/h2-3,8H,1H3",XPCTZQVDEJYUGT-UHFFFAOYSA-N,CC1=C(O)C(=O)C=CO1,-1.063,0.0,1,G1
D-1326,hydroxyphenamate,"InChI=1S/C11H15NO3/c1-2-11(14,8-15-10(12)13)9-6-4-3-5-7-9/h3-7,14H,2,8H2,1H3,(H2,12,13)",WAFIYOULDIWAKR-UHFFFAOYSA-N,CCC(O)(COC(N)=O)c1ccccc1,-0.9229999999999999,0.0,1,G1
D-1327,"2,3,6-trichlorobenzoic acid","InChI=1S/C7H3Cl3O2/c8-3-1-2-4(9)6(10)5(3)7(11)12/h1-2H,(H,11,12)",XZIDTOHMJBOSOX-UHFFFAOYSA-N,OC(=O)c1c(Cl)ccc(Cl)c1Cl,-1.4669999999999999,0.01849999999999996,2,G3
D-1329,l-ascorbic acid,"InChI=1S/C6H8O6/c7-1-2(8)5-3(9)4(10)6(11)12-5/h2,5,7-8,10-11H,1H2",TYQCGQRIZGCHNB-UHFFFAOYSA-N,OCC(O)C1OC(=C(O)C1=O)O,0.27699999999999997,0.0,1,G1
D-1331,scopolamine,"InChI=1S/C17H21NO4/c1-18-13-7-11(8-14(18)16-15(13)22-16)21-17(20)12(9-19)10-5-3-2-4-6-10/h2-6,11-16,19H,7-9H2,1H3/t11?,12-,13-,14+,15?,16?/m1/s1",STECJAGHUSJQJN-MKXJHAPZSA-N,CN1[C@@H]2CC(C[C@H]1C3OC23)OC(=O)[C@H](CO)c4ccccc4,-0.504,0.010999999999999982,2,G3
D-1335,androsterone,"InChI=1S/C19H30O2/c1-18-9-7-13(20)11-12(18)3-4-14-15-5-6-17(21)19(15,2)10-8-16(14)18/h12-16,20H,3-11H2,1-2H3/t12-,13+,14-,15-,16-,18-,19-/m0/s1",QGXBDMJGAMFCBF-HLUDHZFRSA-N,C[C@]12CC[C@@H](O)C[C@@H]1CC[C@@H]3[C@@H]2CC[C@@]4(C)[C@H]3CCC4=O,-4.402,0.009050000000000225,2,G3
D-1337,"acetamide, n-9h-fluoren-2-yl-","InChI=1S/C15H13NO/c1-10(17)16-13-6-7-15-12(9-13)8-11-4-2-3-5-14(11)15/h2-7,9H,8H2,1H3,(H,16,17)",CZIHNRWJTSTCEX-UHFFFAOYSA-N,CC(=O)Nc1ccc2c(Cc3ccccc23)c1,-4.625,0.0,1,G1
D-1338,canthardin,"InChI=1S/C10H12O4/c1-9-5-3-4-6(13-5)10(9,2)8(12)14-7(9)11/h5-6H,3-4H2,1-2H3/t5-,6+,9+,10-",DHZBEENLJMYSHQ-XCVPVQRUSA-N,C[C@@]12[C@H]3CC[C@H](O3)[C@]1(C)C(=O)OC2=O,-3.8160000000000003,0.0,1,G1
D-1339,"tryptophan, 5-hydroxy-","InChI=1S/C11H12N2O3/c12-9(11(15)16)3-6-5-13-10-2-1-7(14)4-8(6)10/h1-2,4-5,9,13-14H,3,12H2,(H,15,16)",LDCYZAJDBXYCGN-UHFFFAOYSA-N,NC(Cc1c[nH]c2ccc(O)cc12)C(O)=O,-1.3430000000000002,0.0,1,G1
D-1341,"propanal, 2,3-dihydroxy-, ()-","InChI=1S/C3H6O3/c4-1-3(6)2-5/h1,3,5-6H,2H2",MNQZXJOMYWMBOU-UHFFFAOYSA-N,OCC(O)C=O,-0.489,0.0,1,G1
D-1342,allyl isothiocyanate,"InChI=1S/C4H5NS/c1-2-3-5-4-6/h2H,1,3H2",ZOJBYZNEUISWFT-UHFFFAOYSA-N,C=CCN=C=S,-1.695,0.0,1,G1
D-1343,"n,n-dimethylhydrazine","InChI=1S/C2H8N2/c1-4(2)3/h3H2,1-2H3",RHUYHJGZWVXEHW-UHFFFAOYSA-N,CN(C)N,1.2209999999999999,0.0,1,G1
D-1344,2-oxetanone,InChI=1S/C3H4O2/c4-3-1-2-5-3/h1-2H2,VEZXCJBBBCKRPI-UHFFFAOYSA-N,O=C1CCO1,0.711,0.0,1,G1
D-1345,ethinyl estradiol,"InChI=1S/C20H24O2/c1-3-20(22)11-9-18-17-6-4-13-12-14(21)5-7-15(13)16(17)8-10-19(18,20)2/h1,5,7,12,16-18,21-22H,4,6,8-11H2,2H3/t16-,17-,18+,19+,20+/m1/s1",BFPYWIDHMRZLRN-SLHNCBLASA-N,C[C@]12CC[C@H]3[C@@H](CCc4cc(O)ccc34)[C@@H]1CC[C@@]2(O)C#C,-4.419,0.0,1,G1
D-1346,testosterone propionate,"InChI=1S/C22H32O3/c1-4-20(24)25-19-8-7-17-16-6-5-14-13-15(23)9-11-21(14,2)18(16)10-12-22(17,19)3/h13,16-19H,4-12H2,1-3H3/t16-,17-,18-,19-,21-,22-/m0/s1",PDMMFKSKQVNJMI-BLQWBTBKSA-N,CCC(=O)O[C@H]1CC[C@H]2[C@@H]3CCC4=CC(=O)CC[C@]4(C)[C@H]3CC[C@]12C,-5.367000000000001,0.0,1,G1
D-1348,biotin,"InChI=1S/C10H16N2O3S/c13-8(14)4-2-1-3-7-9-6(5-16-7)11-10(15)12-9/h6-7,9H,1-5H2,(H,13,14)(H2,11,12,15)",YBJHBAHKTGYVGT-UHFFFAOYSA-N,OC(=O)CCCCC1SCC2NC(=O)NC12,-3.0460000000000003,0.0,1,G1
D-1351,"benzenesulfonamide, 4-amino-n-2-quinoxalinyl-","InChI=1S/C14H12N4O2S/c15-10-5-7-11(8-6-10)21(19,20)18-14-9-16-12-3-1-2-4-13(12)17-14/h1-9H,15H2,(H,17,18)",NHZLNPMOSADWGC-UHFFFAOYSA-N,Nc1ccc(cc1)[S](=O)(=O)Nc2cnc3ccccc3n2,-4.603,0.0,1,G1
D-1352,"1-propanol, 2,3-dimercapto-","InChI=1S/C3H8OS2/c4-1-3(6)2-5/h3-6H,1-2H2",WQABCVAJNWAXTE-UHFFFAOYSA-N,OCC(S)CS,-0.155,0.0,1,G1
D-1354,phloridzin,"InChI=1S/C21H24O10/c22-9-16-18(27)19(28)20(29)21(31-16)30-15-8-12(24)7-14(26)17(15)13(25)6-3-10-1-4-11(23)5-2-10/h1-2,4-5,7-8,16,18-24,26-29H,3,6,9H2/t16-,18-,19+,20-,21-/m1/s1",IOUVKUPGCMBWBT-QNDFHXLGSA-N,OC[C@H]1O[C@@H](Oc2cc(O)cc(O)c2C(=O)CCc3ccc(O)cc3)[C@H](O)[C@@H](O)[C@@H]1O,-2.64,0.0,1,G1
D-1355,ethyl methanesulfonate,"InChI=1S/C3H8O3S/c1-3-6-7(2,4)5/h3H2,1-2H3",PLUBXMRUUVWRLT-UHFFFAOYSA-N,CCO[S](C)(=O)=O,0.402,0.0,1,G1
D-1356,mebutamate,"InChI=1S/C10H20N2O4/c1-4-7(2)10(3,5-15-8(11)13)6-16-9(12)14/h7H,4-6H2,1-3H3,(H2,11,13)(H2,12,14)",LEROTMJVBFSIMP-UHFFFAOYSA-N,CCC(C)C(C)(COC(N)=O)COC(N)=O,-2.366,0.0,1,G1
D-1358,norethindrone,"InChI=1S/C20H26O2/c1-3-20(22)11-9-18-17-6-4-13-12-14(21)5-7-15(13)16(17)8-10-19(18,20)2/h1,12,15-18,22H,4-11H2,2H3/t15-,16+,17+,18-,19-,20-/m0/s1",VIKNJXKGJWUCNN-XGXHKTLJSA-N,C[C@]12CC[C@H]3[C@@H](CCC4=CC(=O)CC[C@H]34)[C@@H]1CC[C@@]2(O)C#C,-4.627,0.0,1,G1
D-1359,"butanedioic acid, mercapto-","InChI=1S/C4H6O4S/c5-3(6)1-2(9)4(7)8/h2,9H,1H2,(H,5,6)(H,7,8)",NJRXVEJTAYWCQJ-UHFFFAOYSA-N,OC(=O)CC(S)C(O)=O,0.522,0.0,1,G1
D-1364,methanethiol,"InChI=1S/CH4S/c1-2/h2H,1H3",LSDPWZHWYPCBBB-UHFFFAOYSA-N,CS,-0.495,0.0,1,G1
D-1365,"ethene, chloro-","InChI=1S/C2H3Cl/c1-2-3/h2H,1H2",BZHJMEDXRYGGRV-UHFFFAOYSA-N,ClC=C,-1.36,0.3679154371440384,3,G5
D-1366,fluoroethene,"InChI=1S/C2H3F/c1-2-3/h2H,1H2",XUCNUKMRBVNAPB-UHFFFAOYSA-N,FC=C,-0.276,0.0,1,G1
D-1373,"2-butanone, 3,3-dimethyl-","InChI=1S/C6H12O/c1-5(7)6(2,3)4/h1-4H3",PJGSXYOJTGTZAV-UHFFFAOYSA-N,CC(=O)C(C)(C)C,-0.722,0.0,1,G1
D-1375,"propanoic acid, 2,2-dichloro-","InChI=1S/C3H4Cl2O2/c1-3(4,5)2(6)7/h1H3,(H,6,7)",NDUPDOJHUQKPAG-UHFFFAOYSA-N,CC(Cl)(Cl)C(O)=O,0.545,0.0,1,G1
D-1376,"1,1,1-trichloro-2-propanol","InChI=1S/C3H5Cl3O/c1-2(7)3(4,5)6/h2,7H,1H3",HCMBPASAOZIEDZ-UHFFFAOYSA-N,CC(O)C(Cl)(Cl)Cl,-0.757,0.0,1,G1
D-1378,"ethane, chloropentafluoro-","InChI=1S/C2ClF5/c3-1(4,5)2(6,7)8",RFCAUADVODFSLZ-UHFFFAOYSA-N,FC(F)(F)C(F)(F)Cl,-3.411,0.007199999999999873,2,G3
D-1379,perfluoropropane,"InChI=1S/C3F8/c4-1(5,2(6,7)8)3(9,10)11",QYSGYZVSCZSLHT-UHFFFAOYSA-N,FC(F)(F)C(F)(F)C(F)(F)F,-4.518,0.0,1,G1
D-1387,quinic acid,"InChI=1S/C7H12O6/c8-3-1-7(13,6(11)12)2-4(9)5(3)10/h3-5,8-10,13H,1-2H2,(H,11,12)",AAWZDTNXLSGCEK-UHFFFAOYSA-N,OC1CC(O)(CC(O)C1O)C(O)=O,0.179,0.0,1,G1
D-1388,"3-pentanol, 3-methyl-, carbamate","InChI=1S/C7H15NO2/c1-4-7(3,5-2)10-6(8)9/h4-5H2,1-3H3,(H2,8,9)",SLWGJZPKHAXZQL-UHFFFAOYSA-N,CCC(C)(CC)OC(N)=O,-1.56,0.0,1,G1
D-1389,carisoprodol,"InChI=1S/C12H24N2O4/c1-5-6-12(4,7-17-10(13)15)8-18-11(16)14-9(2)3/h9H,5-8H2,1-4H3,(H2,13,15)(H,14,16)",OFZCIYFFPZCNJE-UHFFFAOYSA-N,CCCC(C)(COC(N)=O)COC(=O)NC(C)C,-2.938,0.0,1,G1
D-1393,2-methylbutane,"InChI=1S/C5H12/c1-4-5(2)3/h5H,4H2,1-3H3",QWTDNUCVQCZILF-UHFFFAOYSA-N,CCC(C)C,-3.1630000000000003,0.006999999999999895,2,G3
D-1395,"propanal, 2-methyl-","InChI=1S/C4H8O/c1-4(2)3-5/h3-4H,1-2H3",AMIMRNSIRUDHCM-UHFFFAOYSA-N,CC(C)C=O,0.091,0.0,1,G1
D-1396,"2-propenal, 2-methyl-","InChI=1S/C4H6O/c1-4(2)3-5/h3H,1H2,2H3",STNJBCKSHOAVAJ-UHFFFAOYSA-N,CC(=C)C=O,-0.039,0.053849999999999995,2,G3
D-1399,"1-propene, 2,3-dichloro-",InChI=1S/C3H4Cl2/c1-3(5)2-4/h1-2H2,FALCMQXTWHPRIH-UHFFFAOYSA-N,ClCC(Cl)=C,-1.713,0.0,1,G1
D-1402,terebic acid,"InChI=1S/C7H10O4/c1-7(2)4(6(9)10)3-5(8)11-7/h4H,3H2,1-2H3,(H,9,10)/p-1/t4-/m1/s1",UZBOWOQARWWIER-SCSAIBSYSA-M,CC1(C)OC(=O)C[C@@H]1C([O-])=O,-1.245,0.0,1,G1
D-1403,2-p-sulfanilylanilinoethanol,"InChI=1S/C14H16N2O3S/c15-11-1-5-13(6-2-11)20(18,19)14-7-3-12(4-8-14)16-9-10-17/h1-8,16-17H,9-10,15H2",LLBKEUTWJFQRJU-UHFFFAOYSA-N,Nc1ccc(cc1)[S](=O)(=O)c2ccc(NCCO)cc2,-2.597,0.0,1,G1
D-1405,terpin,"InChI=1S/C10H20O2/c1-9(2,11)8-4-6-10(3,12)7-5-8/h8,11-12H,4-7H2,1-3H3",RBNWAMSGVWEHFP-UHFFFAOYSA-N,CC(C)(O)C1CCC(C)(O)CC1,-1.6340000000000001,0.411081186898917,3,G5
D-1406,"preg-4-ene-3,20-dione, 11-hydroxy-, (11.alpha.)","InChI=1S/C21H30O3/c1-12(22)16-6-7-17-15-5-4-13-10-14(23)8-9-20(13,2)19(15)18(24)11-21(16,17)3/h10,15-19,24H,4-9,11H2,1-3H3/t15-,16?,17-,18+,19+,20-,21+/m0/s1",BFZHCUBIASXHPK-ODYOLWGQSA-N,CC(=O)C1CC[C@H]2[C@@H]3CCC4=CC(=O)CC[C@]4(C)[C@H]3[C@H](O)C[C@]12C,-3.82,0.0,1,G1
D-1407,chlormethazanone,"InChI=1S/C11H12ClNO3S/c1-13-10(14)6-7-17(15,16)11(13)8-2-4-9(12)5-3-8/h2-5,11H,6-7H2,1H3",WEQAYVWKMWHEJO-UHFFFAOYSA-N,CN1C(c2ccc(Cl)cc2)[S](=O)(=O)CCC1=O,-2.039,0.0,1,G1
D-1410,cyclizine,"InChI=1S/C18H22N2/c1-19-12-14-20(15-13-19)18(16-8-4-2-5-9-16)17-10-6-3-7-11-17/h2-11,18H,12-15H2,1H3",UVKZSORBKUEBAZ-UHFFFAOYSA-N,CN1CCN(CC1)C(c2ccccc2)c3ccccc3,-2.426,0.0,1,G1
D-1412,methylprednisolone,"InChI=1S/C22H30O5/c1-12-8-14-15-5-7-22(27,18(26)11-23)21(15,3)10-17(25)19(14)20(2)6-4-13(24)9-16(12)20/h4,6,9,12,14-15,17,19,23,25,27H,5,7-8,10-11H2,1-3H3/t12-,14-,15-,17-,19+,20-,21-,22-/m0/s1",VHRSUDSXCMQTMA-PJHHCJLFSA-N,C[C@H]1C[C@H]2[C@@H]3CC[C@](O)(C(=O)CO)[C@@]3(C)C[C@H](O)[C@@H]2[C@@]4(C)C=CC(=O)C=C14,-3.4939999999999998,0.0,1,G1
D-1413,"1,1':2',1-terphenyl",InChI=1S/C18H14/c1-3-9-15(10-4-1)17-13-7-8-14-18(17)16-11-5-2-6-12-16/h1-14H,OIAQMFOKAXHPNH-UHFFFAOYSA-N,c1ccc(cc1)c2ccccc2c3ccccc3,-5.269,0.0,1,G1
D-1414,hexestrol,"InChI=1S/C18H22O2/c1-3-17(13-5-9-15(19)10-6-13)18(4-2)14-7-11-16(20)12-8-14/h5-12,17-20H,3-4H2,1-2H3",PBBGSZCBWVPOOL-UHFFFAOYSA-N,CCC(C(CC)c1ccc(O)cc1)c2ccc(O)cc2,-4.353,0.03849999999999998,2,G3
D-1415,dienestrol,"InChI=1S/C18H18O2/c1-3-17(13-5-9-15(19)10-6-13)18(4-2)14-7-11-16(20)12-8-14/h3-12,19-20H,1-2H3/b17-3+,18-4+",NFDFQCUYFHCNBW-SCGPFSFSSA-N,C/C=C(c1ccc(O)cc1)/C(=C/C)c2ccc(O)cc2,-4.948,0.0,1,G1
D-1416,quininone,"InChI=1S/C20H22N2O2/c1-3-13-12-22-9-7-14(13)10-19(22)20(23)16-6-8-21-18-5-4-15(24-2)11-17(16)18/h3-6,8,11,13-14,19H,1,7,9-10,12H2,2H3",SRFCUPVBYYAMIL-UHFFFAOYSA-N,COc1ccc2nccc(C(=O)C3CC4CCN3CC4C=C)c2c1,-5.031000000000001,0.0,1,G1
D-1417,xanthoxyletin,"InChI=1S/C15H14O4/c1-15(2)7-6-10-12(19-15)8-11-9(14(10)17-3)4-5-13(16)18-11/h4-8H,1-3H3",JSJIIHRNDMLJGK-UHFFFAOYSA-N,COc1c2C=CC(=O)Oc2cc3OC(C)(C)C=Cc13,-3.81,0.0,1,G1
D-1418,3-nitrosalicyclic acid,"InChI=1S/C7H5NO5/c9-6-4(7(10)11)2-1-3-5(6)8(12)13/h1-3,9H,(H,10,11)",WWWFHFGUOIQNJC-UHFFFAOYSA-N,OC(=O)c1cccc(c1O)[N+]([O-])=O,-2.149,0.0,1,G1
D-1419,3'-methylphthalanilic acid,"InChI=1S/C15H13NO3/c1-10-5-4-6-11(9-10)16-14(17)12-7-2-3-8-13(12)15(18)19/h2-9H,1H3,(H,16,17)(H,18,19)",AZPJXONNBLOZFE-UHFFFAOYSA-N,Cc1cccc(NC(=O)c2ccccc2C(O)=O)c1,-2.407,0.0,1,G1
D-1420,"2-naphthalenamine, 1-(phenylazo)-","InChI=1S/C16H13N3/c17-15-11-10-12-6-4-5-9-14(12)16(15)19-18-13-7-2-1-3-8-13/h1-11H,17H2",KLCDQSGLLRINHY-UHFFFAOYSA-N,Nc1ccc2ccccc2c1N=Nc3ccccc3,-5.916,0.0,1,G1
D-1421,homatropine,"InChI=1S/C16H21NO3/c1-17-12-7-8-13(17)10-14(9-12)20-16(19)15(18)11-5-3-2-4-6-11/h2-6,12-15,18H,7-10H2,1H3",ZTVIKZXZYLEVOL-UHFFFAOYSA-N,CN1C2CCC1CC(C2)OC(=O)C(O)c3ccccc3,-1.44,0.0,1,G1
D-1423,"dl-tryptophan, n-acetyl-","InChI=1S/C13H14N2O3/c1-8(16)15-12(13(17)18)6-9-7-14-11-5-3-2-4-10(9)11/h2-5,7,12,14H,6H2,1H3,(H,15,16)(H,17,18)/p-1/t12-/m0/s1",DZTHIGRZJZPRDV-LBPRGKRZSA-M,CC(=O)N[C@@H](Cc1c[nH]c2ccccc12)C([O-])=O,-2.312,0.0,1,G1
D-1424,6-chloropurine,"InChI=1S/C5H3ClN4/c6-4-3-5(9-1-7-3)10-2-8-4/h1-2H,(H,7,8,9,10)",ZKBQDFAWXLTYKS-UHFFFAOYSA-N,Clc1ncnc2nc[nH]c12,-1.49,0.0,1,G1
D-1425,"1,2,3-benzenetriol","InChI=1S/C6H6O3/c7-4-2-1-3-5(8)6(4)9/h1-3,7-9H",WQGWDDDVZFFDIG-UHFFFAOYSA-N,Oc1cccc(O)c1O,0.604,0.04799999999999999,2,G3
D-1428,myo-inositol,InChI=1S/C6H12O6/c7-1-2(8)4(10)6(12)5(11)3(1)9/h1-12H,CDAISMWEOUEBRE-UHFFFAOYSA-N,OC1C(O)C(O)C(O)C(O)C1O,-0.1,0.6741663164399585,3,G4
D-1429,xylitol,"InChI=1S/C5H12O5/c6-1-3(8)5(10)4(9)2-7/h3-10H,1-2H2",HEBKCHPVOIAQTA-UHFFFAOYSA-N,OCC(O)C(O)C(O)CO,0.625,0.0,1,G1
D-1431,"benzene, 2-chloro-1,3,5-trinitro-",InChI=1S/C6H2ClN3O6/c7-6-4(9(13)14)1-3(8(11)12)2-5(6)10(15)16/h1-2H,HJRJRUMKQCMYDL-UHFFFAOYSA-N,[O-][N+](=O)c1cc(c(Cl)c(c1)[N+]([O-])=O)[N+]([O-])=O,-2.6689999999999996,0.0,1,G1
D-1433,"1,2,4,5-benzenetetracarboxylic acid","InChI=1S/C10H6O8/c11-7(12)3-1-4(8(13)14)6(10(17)18)2-5(3)9(15)16/h1-2H,(H,11,12)(H,13,14)(H,15,16)(H,17,18)",CYIDZMCFTVVTJO-UHFFFAOYSA-N,OC(=O)c1cc(C(O)=O)c(cc1C(O)=O)C(O)=O,-1.2590000000000001,0.0,1,G1
D-1436,sparteine,"InChI=1S/C15H26N2/c1-3-7-16-11-13-9-12(14(16)5-1)10-17-8-4-2-6-15(13)17/h12-15H,1-11H2/t12-,13-,14-,15+/m0/s1",SLRCCWJSBJZJBV-ZQDZILKHSA-N,C1CCN2C[C@@H]3C[C@@H](CN4CCCC[C@H]34)[C@@H]2C1,-1.8869999999999998,0.0,1,G1
D-1437,"naphthalene, decahydro-","InChI=1S/C10H18/c1-2-6-10-8-4-3-7-9(10)5-1/h9-10H,1-8H2",NNBZCPXTIHJBJL-UHFFFAOYSA-N,C1CCC2CCCCC2C1,-5.192,0.0,1,G1
D-1438,m-terphenyl,InChI=1S/C18H14/c1-3-8-15(9-4-1)17-12-7-13-18(14-17)16-10-5-2-6-11-16/h1-14H,YJTKZCDBKVTVBY-UHFFFAOYSA-N,c1ccc(cc1)c2cccc(c2)c3ccccc3,-5.183,0.0,1,G1
D-1441,"acetamide, 2-chloro-n,n-di-2-propenyl-","InChI=1S/C8H12ClNO/c1-3-5-10(6-4-2)8(11)7-9/h3-4H,1-2,5-7H2",MDBGGTQNNUOQRC-UHFFFAOYSA-N,ClCC(=O)N(CC=C)CC=C,-0.945,0.0,1,G1
D-1442,"benzoic acid, 4-amino-, 2-methylpropyl ester","InChI=1S/C11H15NO2/c1-8(2)7-14-11(13)9-3-5-10(12)6-4-9/h3-6,8H,7,12H2,1-2H3",PUYOAVGNCWPANW-UHFFFAOYSA-N,CC(C)COC(=O)c1ccc(N)cc1,-2.944,0.0,1,G1
D-1445,piperine,"InChI=1S/C17H19NO3/c19-17(18-10-4-1-5-11-18)7-3-2-6-14-8-9-15-16(12-14)21-13-20-15/h2-3,6-9,12H,1,4-5,10-11,13H2/b6-2+,7-3+",MXXWOMGUGJBKIW-YPCIICBESA-N,O=C(/C=C/C=C/c1ccc2OCOc2c1)N3CCCCC3,-3.853,0.0,1,G1
D-1449,"benzene, 1,2-dichloro-4-methyl-","InChI=1S/C7H6Cl2/c1-5-2-3-6(8)7(9)4-5/h2-4H,1H3",WYUIWKFIFOJVKW-UHFFFAOYSA-N,Cc1ccc(Cl)c(Cl)c1,-3.792,0.0,1,G1
D-1453,".alpha.-d-glucopyranoside, methyl","InChI=1S/C7H14O6/c1-12-7-6(11)5(10)4(9)3(2-8)13-7/h3-11H,2H2,1H3",HOVAGTYPODGVJG-UHFFFAOYSA-N,COC1OC(CO)C(O)C(O)C1O,0.299,0.0,1,G1
D-1455,"butanedioic acid, methylene-","InChI=1S/C5H6O4/c1-3(5(8)9)2-4(6)7/h1-2H2,(H,6,7)(H,8,9)",LVHBHZANLOWSRM-UHFFFAOYSA-N,OC(=O)CC(=C)C(O)=O,-0.22899999999999998,0.01949999999999999,2,G3
D-1458,"benzene, (trichloromethyl)-","InChI=1S/C7H5Cl3/c8-7(9,10)6-4-2-1-3-5-6/h1-5H",XEMRAKSQROQPBR-UHFFFAOYSA-N,ClC(Cl)(Cl)c1ccccc1,-3.5669999999999997,0.0,1,G1
D-1459,"1,2-benzenediol, 4-(1,1-dimethylethyl)-","InChI=1S/C10H14O2/c1-10(2,3)7-4-5-8(11)9(12)6-7/h4-6,11-12H,1-3H3",XESZUVZBAMCAEJ-UHFFFAOYSA-N,CC(C)(C)c1ccc(O)c(O)c1,-1.92,0.0,1,G1
D-1460,alpha-terpineol,"InChI=1S/C10H18O/c1-8-4-6-9(7-5-8)10(2,3)11/h4,9,11H,5-7H2,1-3H3/t9-/m0/s1",WUOACPNHFRMFPN-VIFPVBQESA-N,CC1=CC[C@@H](CC1)C(C)(C)O,-1.889,0.22399999999999987,2,G3
D-1461,"l-proline, 5-oxo-","InChI=1S/C5H7NO3/c7-4-2-1-3(6-4)5(8)9/h3H,1-2H2,(H,6,7)(H,8,9)",ODHCTXKNWHHXJC-UHFFFAOYSA-N,OC(=O)C1CCC(=O)N1,0.5670000000000001,0.0,1,G1
D-1462,1-phenyl ethylamine,"InChI=1S/C8H11N/c1-7(9)8-5-3-2-4-6-8/h2-7H,9H2,1H3",RQEUFEKYXDPUSK-UHFFFAOYSA-N,CC(N)c1ccccc1,-0.46,0.0,1,G1
D-1463,"benzene, (dichloromethyl)-","InChI=1S/C7H6Cl2/c8-7(9)6-4-2-1-3-5-6/h1-5,7H",CAHQGWAXKLQREW-UHFFFAOYSA-N,ClC(Cl)c1ccccc1,-2.8089999999999997,0.0,1,G1
D-1464,"1,2,3-propanetricarboxylic acid","InChI=1S/C6H8O6/c7-4(8)1-3(6(11)12)2-5(9)10/h3H,1-2H2,(H,7,8)(H,9,10)(H,11,12)",KQTIIICEAUMSDG-UHFFFAOYSA-N,OC(=O)CC(CC(O)=O)C(O)=O,0.275,0.0,1,G1
D-1469,4-vinyl-1-cyclohexene,"InChI=1S/C8H12/c1-2-8-6-4-3-5-7-8/h2-4,8H,1,5-7H2",BBDKZWKEPDTENS-UHFFFAOYSA-N,C=CC1CCC=CC1,-3.335,0.0,1,G1
D-1470,"benzene, 1-ethenyl-3-methyl-","InChI=1S/C9H10/c1-3-9-6-4-5-8(2)7-9/h3-7H,1H2,2H3",JZHGRUMIRATHIU-UHFFFAOYSA-N,Cc1cccc(C=C)c1,-3.123,0.0,1,G1
D-1473,"benzene, 1,1'- oxybis(methylene) bis-","InChI=1S/C14H14O/c1-3-7-13(8-4-1)11-15-12-14-9-5-2-6-10-14/h1-10H,11-12H2",MHDVGSVTJDSBDK-UHFFFAOYSA-N,C(OCc1ccccc1)c2ccccc2,-3.695,0.0,1,G1
D-1474,"2,6-dimethyl-4-heptanone","InChI=1S/C9H18O/c1-7(2)5-9(10)6-8(3)4/h7-8H,5-6H2,1-4H3",PTTPXKJBFFKCEK-UHFFFAOYSA-N,CC(C)CC(=O)CC(C)C,-2.52,0.3945000000000001,2,G3
D-1475,"2-propenoic acid, 3-(4-methoxyphenyl)-, 2-ethox","InChI=1S/C14H18O4/c1-3-17-10-11-18-14(15)9-6-12-4-7-13(16-2)8-5-12/h4-9H,3,10-11H2,1-2H3/b9-6+",CMDKPGRTAQVGFQ-RMKNXTFCSA-N,CCOCCOC(=O)/C=C/c1ccc(OC)cc1,-2.699,0.0,1,G1
D-1476,chlorphenesin,"InChI=1S/C9H11ClO3/c10-7-1-3-9(4-2-7)13-6-8(12)5-11/h1-4,8,11-12H,5-6H2",MXOAEAUPQDYUQM-UHFFFAOYSA-N,OCC(O)COc1ccc(Cl)cc1,-1.307,0.0,1,G1
D-1477,"benzene, 1-methoxy-4-(1-propenyl)-","InChI=1S/C10H12O/c1-3-4-9-5-7-10(11-2)8-6-9/h3-8H,1-2H3/b4-3+",RUVINXPYWBROJD-ONEGZZNKSA-N,COc1ccc(\C=C\C)cc1,-3.1260000000000003,0.0,1,G1