ID,Name,InChI,InChIKey,SMILES,Solubility,SD,Occurrences,Group
B-251,bromoacetic acid,"InChI=1S/C2H3BrO2/c3-1-2(4)5/h1H2,(H,4,5)",KDPAWGWELVVRCH-UHFFFAOYSA-N,OC(=O)CBr,1.1002,0.0,1,G1
B-252,acrylic acid,"InChI=1S/C3H4O2/c1-2-3(4)5/h2H,1H2,(H,4,5)",NIXOWILDQLNWCW-UHFFFAOYSA-N,OC(=O)C=C,1.1423,0.0,1,G1
B-254,thiosemicarbazide,"InChI=1S/CH5N3S/c2-1(5)4-3/h3H2,(H3,2,4,5)",BRWIZMBXBAOCCF-UHFFFAOYSA-N,NNC(N)=S,-0.9588,0.0,1,G1
B-255,peroxyacetic acid,"InChI=1S/C2H4O3/c1-2(3)5-4/h4H,1H3",KFSLWBXXFJQRDL-UHFFFAOYSA-N,CC(=O)OO,1.1189,0.0,1,G1
B-259,d-pantothenic acid,"InChI=1S/C9H17NO5/c1-9(2,5-11)7(14)8(15)10-4-3-6(12)13/h7,11,14H,3-5H2,1-2H3,(H,10,15)(H,12,13)",GHOKWGTUZJEAQD-UHFFFAOYSA-N,CC(C)(CO)C(O)C(=O)NCCC(O)=O,0.6591,0.0,1,G1
B-262,cumene hydroperoxide,"InChI=1S/C9H12O2/c1-9(2,11-10)8-6-4-3-5-7-8/h3-7,10H,1-2H3",YQHLDYVWEZKEOX-UHFFFAOYSA-N,CC(C)(OO)c1ccccc1,-1.0394,0.0,1,G1
B-263,"benzenesulfonamide, 4-amino-n-[5-(1-methylethyl)","InChI=1S/C11H14N4O2S2/c1-7(2)10-13-14-11(18-10)15-19(16,17)9-5-3-8(12)4-6-9/h3-7H,12H2,1-2H3,(H,14,15)",OPIGMRDAPFQALU-UHFFFAOYSA-N,CC(C)c1sc(N[S](=O)(=O)c2ccc(N)cc2)nn1,-3.4141,0.0,1,G1
B-264,"peroxide, bis(1-methyl-1-phenylethyl)","InChI=1S/C18H22O2/c1-17(2,15-11-7-5-8-12-15)19-20-18(3,4)16-13-9-6-10-14-16/h5-14H,1-4H3",XMNIXWIUMCBBBL-UHFFFAOYSA-N,CC(C)(OOC(C)(C)c1ccccc1)c2ccccc2,-5.7692,0.0,1,G1
B-267,alpha-pinene,"InChI=1S/C10H16/c1-7-4-5-8-6-9(7)10(8,2)3/h4,8-9H,5-6H2,1-3H3",GRWFGVWFFZKLTI-UHFFFAOYSA-N,CC1=CCC2CC1C2(C)C,-4.7381,0.0,1,G1
B-271,dexpanthenol,"InChI=1S/C9H19NO4/c1-9(2,6-12)7(13)8(14)10-4-3-5-11/h7,11-13H,3-6H2,1-2H3,(H,10,14)/t7-/m0/s1",SNPLKNRPJHDVJA-ZETCQYMHSA-N,CC(C)(CO)[C@@H](O)C(=O)NCCCO,0.6877,0.0,1,G1
B-272,musk ketone,"InChI=1S/C14H18N2O5/c1-7-10(9(3)17)8(2)13(16(20)21)11(14(4,5)6)12(7)15(18)19/h1-6H3",WXCMHFPAUCOJIG-UHFFFAOYSA-N,CC(=O)c1c(C)c(c(c(c1C)[N+]([O-])=O)C(C)(C)C)[N+]([O-])=O,-5.1901,0.0,1,G1
B-274,purpurin,"InChI=1S/C14H8O5/c15-8-5-9(16)14(19)11-10(8)12(17)6-3-1-2-4-7(6)13(11)18/h1-5,15-16,19H",BBNQQADTFFCFGB-UHFFFAOYSA-N,Oc1cc(O)c2C(=O)c3ccccc3C(=O)c2c1O,-4.6024,0.0,1,G1
B-276,coumachlor,"InChI=1S/C19H15ClO4/c1-11(21)10-15(12-6-8-13(20)9-7-12)17-18(22)14-4-2-3-5-16(14)24-19(17)23/h2-9,15,23H,10H2,1H3",HENZOLWOIZODCT-UHFFFAOYSA-N,CC(=O)CC(c1ccc(Cl)cc1)C2=C(O)Oc3ccccc3C2=O,-5.836,0.0,1,G1
B-279,"1-amino-2-methyl-9,10-anthracenedione","InChI=1S/C15H11NO2/c1-8-6-7-11-12(13(8)16)15(18)10-5-3-2-4-9(10)14(11)17/h2-7H,16H2,1H3",ZLCUIOWQYBYEBG-UHFFFAOYSA-N,Cc1ccc2C(=O)c3ccccc3C(=O)c2c1N,-5.8541,0.0,1,G1
B-280,"1,8-anthraquinonedisulfonic acid","InChI=1S/C14H8O8S2/c15-13-7-3-1-5-9(23(17,18)19)11(7)14(16)12-8(13)4-2-6-10(12)24(20,21)22/h1-6H,(H,17,18,19)(H,20,21,22)",IJNPIHLZSZCGOC-UHFFFAOYSA-N,O[S](=O)(=O)c1cccc2C(=O)c3cccc(c3C(=O)c12)[S](O)(=O)=O,1.2572,0.0,1,G1
B-287,"4(1h)-quinolinone, 1-methyl-","InChI=1S/C10H9NO/c1-11-7-6-10(12)8-4-2-3-5-9(8)11/h2-7H,1H3",CSJAXRKDCCWCSJ-UHFFFAOYSA-N,CN1C=CC(=O)c2ccccc12,-0.9818,0.0,1,G1
B-289,rotenone,"InChI=1S/C23H22O6/c1-11(2)16-8-14-15(28-16)6-5-12-22(24)21-13-7-18(25-3)19(26-4)9-17(13)27-10-20(21)29-23(12)14/h5-7,9,16,20-21H,1,8,10H2,2-4H3/t16-,20-,21+/m1/s1",JUVIOZPCNVVQFO-HBGVWJBISA-N,COc1cc2OC[C@H]3Oc4c5C[C@@H](Oc5ccc4C(=O)[C@H]3c2cc1OC)C(C)=C,-6.2949,0.0,1,G1
B-290,phytic acid,"InChI=1S/C6H18O24P6/c7-31(8,9)25-1-2(26-32(10,11)12)4(28-34(16,17)18)6(30-36(22,23)24)5(29-35(19,20)21)3(1)27-33(13,14)15/h1-6H,(H2,7,8,9)(H2,10,11,12)(H2,13,14,15)(H2,16,17,18)(H2,19,20,21)(H2,22,23,24)/t1-,2-,3-,4+,5-,6-",IMQLKJBTEOYOSI-GPIVLXJGSA-N,O[P](O)(=O)O[C@H]1[C@H](O[P](O)(O)=O)[C@@H](O[P](O)(O)=O)[C@H](O[P](O)(O)=O)[C@@H](O[P](O)(O)=O)[C@H]1O[P](O)(O)=O,0.1804,0.0,1,G1
B-291,riboflavin,"InChI=1S/C17H20N4O6/c1-7-3-9-10(4-8(7)2)21(5-11(23)14(25)12(24)6-22)15-13(18-9)16(26)20-17(27)19-15/h3-4,11-12,14,22-25H,5-6H2,1-2H3,(H,20,26,27)",AUNGANRZJHBGPY-UHFFFAOYSA-N,Cc1cc2N=C3C(=O)NC(=O)N=C3N(CC(O)C(O)C(O)CO)c2cc1C,-3.6478,0.041678238393141796,3,G5
B-294,"2,6-dihydroxy-anthraquinone","InChI=1S/C14H8O4/c15-7-1-3-9-11(5-7)14(18)10-4-2-8(16)6-12(10)13(9)17/h1-6,15-16H",APAJFZPFBHMFQR-UHFFFAOYSA-N,Oc1ccc2C(=O)c3cc(O)ccc3C(=O)c2c1,-5.8892,0.0,1,G1
B-296,diphenyl phthalate,InChI=1S/C20H14O4/c21-19(23-15-9-3-1-4-10-15)17-13-7-8-14-18(17)20(22)24-16-11-5-2-6-12-16/h1-14H,DWNAQMUDCDVSLT-UHFFFAOYSA-N,O=C(Oc1ccccc1)c2ccccc2C(=O)Oc3ccccc3,-6.5891,0.0,1,G1
B-298,didecyl phthalate,"InChI=1S/C28H46O4/c1-3-5-7-9-11-13-15-19-23-31-27(29)25-21-17-18-22-26(25)28(30)32-24-20-16-14-12-10-8-6-4-2/h17-18,21-22H,3-16,19-20,23-24H2,1-2H3",PGIBJVOPLXHHGS-UHFFFAOYSA-N,CCCCCCCCCCOC(=O)c1ccccc1C(=O)OCCCCCCCCCC,-9.3076,0.0,1,G1
B-301,"benzoic acid, 2-(4-chlorobenzoyl)-","InChI=1S/C14H9ClO3/c15-10-7-5-9(6-8-10)13(16)11-3-1-2-4-12(11)14(17)18/h1-8H,(H,17,18)",YWECCEXWKFHHQJ-UHFFFAOYSA-N,OC(=O)c1ccccc1C(=O)c2ccc(Cl)cc2,-2.7171,0.0,1,G1
B-302,"benzoic acid, 2-(4-hydroxybenzoyl)-","InChI=1S/C14H10O4/c15-10-7-5-9(6-8-10)13(16)11-3-1-2-4-12(11)14(17)18/h1-8,15H,(H,17,18)",YGTUPRIZNBMOFV-UHFFFAOYSA-N,OC(=O)c1ccccc1C(=O)c2ccc(O)cc2,-2.5835,0.0,1,G1
B-304,"2,7-naphthalenedisulfonic acid, 1-amino-","InChI=1S/C10H9NO6S2/c11-9-3-4-10(19(15,16)17)8-5-6(18(12,13)14)1-2-7(8)9/h1-5H,11H2,(H,12,13,14)(H,15,16,17)",JSBQMQFABBMNSV-UHFFFAOYSA-N,Nc1ccc(c2cc(ccc12)[S](O)(=O)=O)[S](O)(=O)=O,-0.2592,0.0,1,G1
B-305,"1,6-naphthalenedisulfonic acid, 4-amino-","InChI=1S/C10H9NO6S2/c11-9-3-4-10(19(15,16)17)7-2-1-6(5-8(7)9)18(12,13)14/h1-5H,11H2,(H,12,13,14)(H,15,16,17)",QUFFRITXLMVPMV-UHFFFAOYSA-N,Nc1ccc(c2ccc(cc12)[S](O)(=O)=O)[S](O)(=O)=O,-1.643,0.0,1,G1
B-307,diphenylacetonitrile,"InChI=1S/C14H11N/c15-11-14(12-7-3-1-4-8-12)13-9-5-2-6-10-13/h1-10,14H",NEBPTMCRLHKPOB-UHFFFAOYSA-N,N#CC(c1ccccc1)c2ccccc2,-2.9437,0.0,1,G1
B-309,8-quinolinecarboxylic acid,"InChI=1S/C10H7NO2/c12-10(13)8-5-1-3-7-4-2-6-11-9(7)8/h1-6H,(H,12,13)",QRDZFPUVLYEQTA-UHFFFAOYSA-N,OC(=O)c1cccc2cccnc12,-1.7447,0.0,1,G1
B-310,"benzaldehyde, 3,4,5-trimethoxy-","InChI=1S/C10H12O4/c1-12-8-4-7(6-11)5-9(13-2)10(8)14-3/h4-6H,1-3H3",OPHQOIGEOHXOGX-UHFFFAOYSA-N,COc1cc(C=O)cc(OC)c1OC,-2.1195,0.0,1,G1
B-312,"benzoic acid, 2-hydroxy-, 2-hydroxyethyl ester","InChI=1S/C9H10O4/c10-5-6-13-9(12)7-3-1-2-4-8(7)11/h1-4,10-11H,5-6H2",LVYLCBNXHHHPSB-UHFFFAOYSA-N,OCCOC(=O)c1ccccc1O,-1.1567,0.0,1,G1
B-316,"2,6-dimethylaniline","InChI=1S/C8H11N/c1-6-4-3-5-7(2)8(6)9/h3-5H,9H2,1-2H3",UFFBMTHBGFGIHF-UHFFFAOYSA-N,Cc1cccc(C)c1N,-1.1675,0.0,1,G1
B-317,2-methyl-6-chlorophenol,"InChI=1S/C7H7ClO/c1-5-3-2-4-6(8)7(5)9/h2-4,9H,1H3",YPNZJHFXFVLXSE-UHFFFAOYSA-N,Cc1cccc(Cl)c1O,-0.7739,0.0,1,G1
B-320,hexabromobenzene,InChI=1S/C6Br6/c7-1-2(8)4(10)6(12)5(11)3(1)9,CAYGQBVSOZLICD-UHFFFAOYSA-N,Brc1c(Br)c(Br)c(Br)c(Br)c1Br,-9.5374,0.10130000000000017,2,G3
B-321,"1,3,5-trichloroisocyanuric acid",InChI=1S/C3Cl3N3O3/c4-7-1(10)8(5)3(12)9(6)2(7)11,YRIZYWQGELRKNT-UHFFFAOYSA-N,ClN1C(=O)N(Cl)C(=O)N(Cl)C1=O,-1.2871,0.0,1,G1
B-325,2-acetylthiophene,"InChI=1S/C6H6OS/c1-5(7)6-3-2-4-8-6/h2-4H,1H3",WYJOVVXUZNRJQY-UHFFFAOYSA-N,CC(=O)c1sccc1,-0.9549,0.0,1,G1
B-326,o-t-butylphenol,"InChI=1S/C10H14O/c1-10(2,3)8-6-4-5-7-9(8)11/h4-7,11H,1-3H3",WJQOZHYUIDYNHM-UHFFFAOYSA-N,CC(C)(C)c1ccccc1O,-2.3316,0.0,1,G1
B-327,3-trifluoromethyl-4-nitrophenol,"InChI=1S/C7H4F3NO3/c8-7(9,10)5-3-4(12)1-2-6(5)11(13)14/h1-3,12H",ZEFMBAFMCSYJOO-UHFFFAOYSA-N,Oc1ccc(c(c1)C(F)(F)F)[N+]([O-])=O,-1.6172,0.0,1,G1
B-331,"1,2-benzenedicarboxamide","InChI=1S/C8H8N2O2/c9-7(11)5-3-1-2-4-6(5)8(10)12/h1-4H,(H2,9,11)(H2,10,12)",NAYYNDKKHOIIOD-UHFFFAOYSA-N,NC(=O)c1ccccc1C(N)=O,-2.4371,0.24144999999999994,2,G3
B-333,"benzene, 1,4-dimethoxy-2-nitro-","InChI=1S/C8H9NO4/c1-12-6-3-4-8(13-2)7(5-6)9(10)11/h3-5H,1-2H3",UPTOWXNJLZJTGD-UHFFFAOYSA-N,COc1ccc(OC)c(c1)[N+]([O-])=O,-3.1167,0.0,1,G1
B-334,"benzeneacetic acid, 2-carboxy-","InChI=1S/C9H8O4/c10-8(11)5-6-3-1-2-4-7(6)9(12)13/h1-4H,5H2,(H,10,11)(H,12,13)",ZHQLTKAVLJKSKR-UHFFFAOYSA-N,OC(=O)Cc1ccccc1C(O)=O,-1.0515,0.0,1,G1
B-335,4-chloro-2-nitroaniline,"InChI=1S/C6H5ClN2O2/c7-4-1-2-5(8)6(3-4)9(10)11/h1-3H,8H2",PBGKNXWGYQPUJK-UHFFFAOYSA-N,Nc1ccc(Cl)cc1[N+]([O-])=O,-2.5380000000000003,0.0,1,G1
B-337,"d-glycero-d-gulo-heptonic acid, .gamma.-lactone","InChI=1S/C7H12O7/c8-1-2(9)3(10)6-4(11)5(12)7(13)14-6/h2-6,8-12H,1H2",VIVCRCODGMFTFY-UHFFFAOYSA-N,OCC(O)C(O)C1OC(=O)C(O)C1O,0.3348,0.0,1,G1
B-338,chlorothymol,"InChI=1S/C10H13ClO/c1-6(2)8-5-9(11)7(3)4-10(8)12/h4-6,12H,1-3H3",KFZXVMNBUMVKLN-UHFFFAOYSA-N,CC(C)c1cc(Cl)c(C)cc1O,-2.2664,0.0,1,G1
B-342,2-methoxyaniline,"InChI=1S/C7H9NO/c1-9-7-5-3-2-4-6(7)8/h2-5H,8H2,1H3",VMPITZXILSNTON-UHFFFAOYSA-N,COc1ccccc1N,-0.9901,0.0,1,G1
B-345,penicillic acid,"InChI=1S/C8H10O4/c1-5(2)8(11)6(12-3)4-7(9)10/h4H,1H2,2-3H3,(H,9,10)",VOUGEZYPVGAPBB-UHFFFAOYSA-N,COC(=CC(O)=O)C(=O)C(C)=C,-0.9299,0.0,1,G1
B-346,"d-gluconic acid, .delta.-lactone","InChI=1S/C6H10O6/c7-1-2-3(8)4(9)5(10)6(11)12-2/h2-5,7-10H,1H2",PHOQVHQSTUBQQK-UHFFFAOYSA-N,OCC1OC(=O)C(O)C(O)C1O,0.5201,0.0,1,G1
B-354,4-phenylcatechol,"InChI=1S/C12H10O2/c13-11-7-6-10(8-12(11)14)9-4-2-1-3-5-9/h1-8,13-14H",QDNPCYCBQFHNJC-UHFFFAOYSA-N,Oc1ccc(cc1O)c2ccccc2,-2.0659,0.0,1,G1
B-356,tolonium chloride,"InChI=1S/C15H16N3S.ClH/c1-9-6-13-15(8-11(9)16)19-14-7-10(18(2)3)4-5-12(14)17-13;/h4-8H,16H2,1-3H3;1H/q+1;/p-1",HNONEKILPDHFOL-UHFFFAOYSA-M,[Cl-].CN(C)c1ccc2nc3cc(C)c(N)cc3[s+]c2c1,-0.9034,0.0,1,G1
B-358,"ethanol, 2-(ethylphenylamino)-","InChI=1S/C10H15NO/c1-2-11(8-9-12)10-6-4-3-5-7-10/h3-7,12H,2,8-9H2,1H3",HYVGFUIWHXLVNV-UHFFFAOYSA-N,CCN(CCO)c1ccccc1,-1.9171,0.0,1,G1
B-359,"3,6-diaminoacridine","InChI=1S/C13H11N3/c14-10-3-1-8-5-9-2-4-11(15)7-13(9)16-12(8)6-10/h1-7H,14-15H2",WDVSHHCDHLJJJR-UHFFFAOYSA-N,Nc1ccc2cc3ccc(N)cc3nc2c1,0.3783,0.0,1,G1
B-360,4-acetylbiphenyl,"InChI=1S/C14H12O/c1-11(15)12-7-9-14(10-8-12)13-5-3-2-4-6-13/h2-10H,1H3",QCZZSANNLWPGEA-UHFFFAOYSA-N,CC(=O)c1ccc(cc1)c2ccccc2,-3.3104,0.0,1,G1
B-361,p-nitrobiphenyl,InChI=1S/C12H9NO2/c14-13(15)12-8-6-11(7-9-12)10-4-2-1-3-5-10/h1-9H,BAJQRLZAPXASRD-UHFFFAOYSA-N,[O-][N+](=O)c1ccc(cc1)c2ccccc2,-5.2094,0.0,1,G1
B-363,1-(2-naphthalenyl)ethanone,"InChI=1S/C12H10O/c1-9(13)11-7-6-10-4-2-3-5-12(10)8-11/h2-8H,1H3",XSAYZAUNJMRRIR-UHFFFAOYSA-N,CC(=O)c1ccc2ccccc2c1,-2.7964,0.0,1,G1
B-364,2-quinolinecarboxylic acid,"InChI=1S/C10H7NO2/c12-10(13)9-6-5-7-3-1-2-4-8(7)11-9/h1-6H,(H,12,13)",LOAUVZALPPNFOQ-UHFFFAOYSA-N,OC(=O)c1ccc2ccccc2n1,-1.0911,0.0,1,G1
B-366,methyleugenol,"InChI=1S/C11H14O2/c1-4-5-9-6-7-10(12-2)11(8-9)13-3/h4,6-8H,1,5H2,2-3H3",ZYEMGPIYFIJGTP-UHFFFAOYSA-N,COc1ccc(CC=C)cc1OC,-2.552,0.0,1,G1
B-370,"1,3-butanedione, 1-phenyl-","InChI=1S/C10H10O2/c1-8(11)7-10(12)9-5-3-2-4-6-9/h2-6H,7H2,1H3",CVBUKMMMRLOKQR-UHFFFAOYSA-N,CC(=O)CC(=O)c1ccccc1,-2.6268,0.0,1,G1
B-371,"benzoic acid, anhydride",InChI=1S/C14H10O3/c15-13(11-7-3-1-4-8-11)17-14(16)12-9-5-2-6-10-12/h1-10H,CHIHQLCVLOXUJW-UHFFFAOYSA-N,O=C(OC(=O)c1ccccc1)c2ccccc2,-4.3546,0.0,1,G1
B-372,"2,4-d, isopropyl ester","InChI=1S/C11H12Cl2O3/c1-7(2)16-11(14)6-15-10-4-3-8(12)5-9(10)13/h3-5,7H,6H2,1-2H3",WHOKDONDRZNCBC-UHFFFAOYSA-N,CC(C)OC(=O)COc1ccc(Cl)cc1Cl,-3.8480000000000003,0.0,1,G1
B-376,pralidoxime iodide [usan:inn:jan],"InChI=1S/C7H8N2O.HI/c1-9-5-3-2-4-7(9)6-8-10;/h2-6H,1H3;1H/b7-6+;",QNBVYCDYFJUNLO-UHDJGPCESA-N,[I-].CN1C=CC=C\C1=C/[NH+]=O,-0.7405,0.0,1,G1
B-377,"2,4-d, butyl ester","InChI=1S/C12H14Cl2O3/c1-2-3-6-16-12(15)8-17-11-5-4-9(13)7-10(11)14/h4-5,7H,2-3,6,8H2,1H3",UQMRAFJOBWOFNS-UHFFFAOYSA-N,CCCCOC(=O)COc1ccc(Cl)cc1Cl,-3.78,0.0,1,G1
B-379,"2,4-deb","InChI=1S/C15H12Cl2O3/c16-12-6-7-14(13(17)10-12)19-8-9-20-15(18)11-4-2-1-3-5-11/h1-7,10H,8-9H2",LGURYBCSJPXHTF-UHFFFAOYSA-N,Clc1ccc(OCCOC(=O)c2ccccc2)c(Cl)c1,-3.8118,0.0,1,G1
B-382,triethylene glycol bis(2-ethylbutyrate),"InChI=1S/C18H34O6/c1-5-15(6-2)17(19)23-13-11-21-9-10-22-12-14-24-18(20)16(7-3)8-4/h15-16H,5-14H2,1-4H3",JEYLQCXBYFQJRO-UHFFFAOYSA-N,CCC(CC)C(=O)OCCOCCOCCOC(=O)C(CC)CC,-3.2386,0.0,1,G1
B-383,dimethyl glyoxime,"InChI=1S/C4H8N2O2/c1-3(5-7)4(2)6-8/h5,7H,1-2H3/b4-3-",OFZZNQXYRRSXOI-ARJAWSKDSA-N,C\C(NO)=C(/C)N=O,-2.2868,0.0,1,G1
B-386,"3,4-dichlorophenol","InChI=1S/C6H4Cl2O/c7-5-2-1-4(9)3-6(5)8/h1-3,9H",WDNBURPWRNALGP-UHFFFAOYSA-N,Oc1ccc(Cl)c(Cl)c1,-1.2458,0.0,1,G1
B-387,ethyl oxalate,"InChI=1S/C6H10O4/c1-3-9-5(7)6(8)10-4-2/h3-4H2,1-2H3",WYACBZDAHNBPPB-UHFFFAOYSA-N,CCOC(=O)C(=O)OCC,-0.6085,0.0,1,G1
B-389,"2,3-dibromo-1-propanol","InChI=1S/C3H6Br2O/c4-1-3(5)2-6/h3,6H,1-2H2",QWVCIORZLNBIIC-UHFFFAOYSA-N,OCC(Br)CBr,-0.6222,0.0,1,G1
B-391,2-amino-1-butanol,"InChI=1S/C4H11NO/c1-2-4(5)3-6/h4,6H,2-3,5H2,1H3",JCBPETKZIGVZRE-UHFFFAOYSA-N,CCC(N)CO,1.0499,0.0,1,G1
B-392,"3-chloro-1,2-propanediol","InChI=1S/C3H7ClO2/c4-1-3(6)2-5/h3,5-6H,1-2H2",SSZWWUDQMAHNAQ-UHFFFAOYSA-N,OCC(O)CCl,0.9565,0.0,1,G1
B-393,2-butanone oxime,"InChI=1S/C4H9NO/c1-3-4(2)5-6/h6H,3H2,1-2H3/b5-4+",WHIVNJATOVLWBW-SNAWJCMRSA-N,CC\C(C)=N\O,0.0599,0.0,1,G1
B-394,methyl chloroacetate,"InChI=1S/C3H5ClO2/c1-6-3(5)2-4/h2H2,1H3",QABLOFMHHSOFRJ-UHFFFAOYSA-N,COC(=O)CCl,-0.3728,0.0,1,G1
B-395,2-methyltetrahydrofuran,"InChI=1S/C5H10O/c1-5-3-2-4-6-5/h5H,2-4H2,1H3",JWUJQDFVADABEY-UHFFFAOYSA-N,CC1CCCO1,0.2069,0.08166273459921741,3,G5
B-397,"1,3-dioxolan-2-one",InChI=1S/C3H4O3/c4-3-5-1-2-6-3/h1-2H2,KMTRUDSVKNLOMY-UHFFFAOYSA-N,O=C1OCCO1,1.0552,0.0,1,G1
B-399,"2,4-di-t-butylphenol","InChI=1S/C14H22O/c1-13(2,3)10-7-8-12(15)11(9-10)14(4,5)6/h7-9,15H,1-6H3",ICKWICRCANNIBI-UHFFFAOYSA-N,CC(C)(C)c1ccc(O)c(c1)C(C)(C)C,-3.7705,0.0,1,G1
B-400,2-(bis(1-methylethyl)amino)ethanol,"InChI=1S/C8H19NO/c1-7(2)9(5-6-10)8(3)4/h7-8,10H,5-6H2,1-4H3",ZYWUVGFIXPNBDL-UHFFFAOYSA-N,CC(C)N(CCO)C(C)C,-1.0829,0.0,1,G1
B-401,"l-valine, n-acetyl-","InChI=1S/C7H13NO3/c1-4(2)6(7(10)11)8-5(3)9/h4,6H,1-3H3,(H,8,9)(H,10,11)/t6-/m0/s1",IHYJTAOFMMMOPX-LURJTMIESA-N,CC(C)[C@H](NC(C)=O)C(O)=O,-0.3599,0.0,1,G1
B-403,"benzenamine, 4-methoxy-2-nitro-","InChI=1S/C7H8N2O3/c1-12-5-2-3-6(8)7(4-5)9(10)11/h2-4H,8H2,1H3",QFMJFXFXQAFGBO-UHFFFAOYSA-N,COc1ccc(N)c(c1)[N+]([O-])=O,-3.1465,0.0,1,G1
B-404,"phenol, 2,2'-thiobis 4,6-dichloro-","InChI=1S/C12H6Cl4O2S/c13-5-1-7(15)11(17)9(3-5)19-10-4-6(14)2-8(16)12(10)18/h1-4,17-18H",JFIOVJDNOJYLKP-UHFFFAOYSA-N,Oc1c(Cl)cc(Cl)cc1Sc2cc(Cl)cc(Cl)c2O,-4.9495,0.0,1,G1
B-406,allantoin,"InChI=1S/C4H6N4O3/c5-3(10)6-1-2(9)8-4(11)7-1/h1H,(H3,5,6,10)(H2,7,8,9,11)",POJWUDADGALRAB-UHFFFAOYSA-N,NC(=O)NC1NC(=O)NC1=O,-1.4778,0.06110000000000004,2,G3
B-407,"pentanoic acid, 2-methyl-","InChI=1S/C6H12O2/c1-3-4-5(2)6(7)8/h5H,3-4H2,1-2H3,(H,7,8)",OVBFMEVBMNZIBR-UHFFFAOYSA-N,CCCC(C)C(O)=O,-0.889,0.0,1,G1
B-408,ethyl lactate,"InChI=1S/C5H10O3/c1-3-8-5(7)4(2)6/h4,6H,3H2,1-2H3",LZCLXQDLBQLTDK-UHFFFAOYSA-N,CCOC(=O)C(C)O,0.9276,0.0,1,G1
B-410,isobutyl isobutyrate,"InChI=1S/C8H16O2/c1-6(2)5-10-8(9)7(3)4/h6-7H,5H2,1-4H3",RXGUIWHIADMCFC-UHFFFAOYSA-N,CC(C)COC(=O)C(C)C,-2.1590000000000003,0.12199999999999989,2,G3
B-412,tetrahydrofurfuryl alcohol,"InChI=1S/C5H10O2/c6-4-5-2-1-3-7-5/h5-6H,1-4H2",BSYVTEYKTMYBMK-UHFFFAOYSA-N,OCC1CCCO1,0.9908,0.0,1,G1
B-416,"benzenesulfonic acid, 3-amino-4-methoxy-","InChI=1S/C7H9NO4S/c1-12-7-3-2-5(4-6(7)8)13(9,10)11/h2-4H,8H2,1H3,(H,9,10,11)",FLIOATBXVNLPLK-UHFFFAOYSA-N,COc1ccc(cc1N)[S](O)(=O)=O,-0.8997,0.0,1,G1
B-417,"benzoic acid, 2-amino-4-sulfo-","InChI=1S/C7H7NO5S/c8-6-3-4(14(11,12)13)1-2-5(6)7(9)10/h1-3H,8H2,(H,9,10)(H,11,12,13)",GRGSHONWRKRWGP-UHFFFAOYSA-N,Nc1cc(ccc1C(O)=O)[S](O)(=O)=O,-1.3157,0.0,1,G1
B-418,"cyclohexanol, 4-(1,1-dimethylethyl)-","InChI=1S/C10H20O/c1-10(2,3)8-4-6-9(11)7-5-8/h8-9,11H,4-7H2,1-3H3",CCOQPGVQAWPUPE-UHFFFAOYSA-N,CC(C)(C)C1CCC(O)CC1,-3.1939,0.0,1,G1
B-420,"benzenesulfonyl chloride, 4-iodo-","InChI=1S/C6H4ClIO2S/c7-11(9,10)6-3-1-5(8)2-4-6/h1-4H",POXFXTSTVWDWIR-UHFFFAOYSA-N,Cl[S](=O)(=O)c1ccc(I)cc1,-4.2686,0.0,1,G1
B-425,populin,"InChI=1S/C20H22O8/c21-10-13-8-4-5-9-14(13)27-20-18(24)17(23)16(22)15(28-20)11-26-19(25)12-6-2-1-3-7-12/h1-9,15-18,20-24H,10-11H2/t15-,16-,17+,18-,20-/m1/s1",HHSKNLJWHGXWPK-BFMVXSJESA-N,OCc1ccccc1O[C@@H]2O[C@H](COC(=O)c3ccccc3)[C@@H](O)[C@H](O)[C@H]2O,-2.8925,0.0,1,G1
B-430,2-amino-4-nitrophenol,"InChI=1S/C6H6N2O3/c7-5-3-4(8(10)11)1-2-6(5)9/h1-3,9H,7H2",VLZVIIYRNMWPSN-UHFFFAOYSA-N,Nc1cc(ccc1O)[N+]([O-])=O,-2.2217,0.0,1,G1
B-431,2-methoxy-5-nitroaniline,"InChI=1S/C7H8N2O3/c1-12-7-3-2-5(9(10)11)4-6(7)8/h2-4H,8H2,1H3",NIPDVSLAMPAWTP-UHFFFAOYSA-N,COc1ccc(cc1N)[N+]([O-])=O,-3.165,0.0,1,G1
B-433,p-menthane,"InChI=1S/C10H20/c1-8(2)10-6-4-9(3)5-7-10/h8-10H,4-7H2,1-3H3",CFJYNSNXFXLKNS-UHFFFAOYSA-N,CC1CCC(CC1)C(C)C,-5.6998,0.0,1,G1
B-434,gamma-terpinene,"InChI=1S/C10H16/c1-8(2)10-6-4-9(3)5-7-10/h4,7-8H,5-6H2,1-3H3",YKFLAYDHMOASIY-UHFFFAOYSA-N,CC(C)C1=CCC(=CC1)C,-4.1958,0.0,1,G1
B-436,terephthalic acid,"InChI=1S/C8H6O4/c9-7(10)5-1-2-6(4-3-5)8(11)12/h1-4H,(H,9,10)(H,11,12)",KKEYFWRCBNTPAC-UHFFFAOYSA-N,OC(=O)c1ccc(cc1)C(O)=O,-4.0444,0.07279999999999998,2,G3
B-437,2-(diethylamino)-ethanol,"InChI=1S/C6H15NO/c1-3-7(4-2)5-6-8/h8H,3-6H2,1-2H3",BFSVOASYOCHEOV-UHFFFAOYSA-N,CCN(CC)CCO,0.9311,0.0,1,G1
B-443,cyclohexanone oxime,"InChI=1S/C6H11NO/c8-7-6-4-2-1-3-5-6/h8H,1-5H2",VEZUQRBDRNJBJY-UHFFFAOYSA-N,ON=C1CCCCC1,-0.7984,0.0,1,G1
B-444,tetrahydropyran-2-methanol,"InChI=1S/C6H12O2/c7-5-6-3-1-2-4-8-6/h6-7H,1-5H2",ROTONRWJLXYJBD-UHFFFAOYSA-N,OCC1CCCCO1,0.9349,0.0,1,G1
B-445,4-ethylmorpholine,"InChI=1S/C6H13NO/c1-2-7-3-5-8-6-4-7/h2-6H2,1H3",HVCNXQOWACZAFN-UHFFFAOYSA-N,CCN1CCOCC1,0.9386,0.0,1,G1
B-448,"4,4'-methylenebis(2-chloroaniline)","InChI=1S/C13H12Cl2N2/c14-10-6-8(1-3-12(10)16)5-9-2-4-13(17)11(15)7-9/h1-4,6-7H,5,16-17H2",IBOFVQJTBBUKMU-UHFFFAOYSA-N,Nc1ccc(Cc2ccc(N)c(Cl)c2)cc1Cl,-4.2838,0.0,1,G1
B-450,hyoscyamine,"InChI=1S/C17H23NO3/c1-18-13-7-8-14(18)10-15(9-13)21-17(20)16(11-19)12-5-3-2-4-6-12/h2-6,13-16,19H,7-11H2,1H3/t13-,14+,15?,16-/m1/s1",RKUNBYITZUJHSG-VFSICIBPSA-N,CN1[C@@H]2CC[C@H]1CC(C2)OC(=O)[C@H](CO)c3ccccc3,-1.91,0.0,1,G1
B-451,4-hydroxydiphenylmethane,"InChI=1S/C13H12O/c14-13-8-6-12(7-9-13)10-11-4-2-1-3-5-11/h1-9,14H,10H2",HJSPWKGEPDZNLK-UHFFFAOYSA-N,Oc1ccc(Cc2ccccc2)cc1,-3.4009,0.0,1,G1
B-453,"n,n'-diphenylguanidine","InChI=1S/C13H13N3/c14-13(15-11-7-3-1-4-8-11)16-12-9-5-2-6-10-12/h1-10H,(H3,14,15,16)",OWRCNXZUPFZXOS-UHFFFAOYSA-N,NC(Nc1ccccc1)=Nc2ccccc2,-2.3248,0.0,1,G1
B-455,"1,3,5-triethylbenzene","InChI=1S/C12H18/c1-4-10-7-11(5-2)9-12(6-3)8-10/h7-9H,4-6H2,1-3H3",WJYMPXJVHNDZHD-UHFFFAOYSA-N,CCc1cc(CC)cc(CC)c1,-7.0641,0.0,1,G1
B-456,"methanediamine, n,n,n',n'-tetraethyl-","InChI=1S/C9H22N2/c1-5-10(6-2)9-11(7-3)8-4/h5-9H2,1-4H3",UNEXJVCWJSHFNN-UHFFFAOYSA-N,CCN(CC)CN(CC)CC,-0.1995,0.0,1,G1
B-457,entprol,"InChI=1S/C14H32N2O4/c1-11(17)7-15(8-12(2)18)5-6-16(9-13(3)19)10-14(4)20/h11-14,17-20H,5-10H2,1-4H3",NSOXQYCFHDMMGV-UHFFFAOYSA-N,CC(O)CN(CCN(CC(C)O)CC(C)O)CC(C)O,0.534,0.0,1,G1
B-458,triallylamine,"InChI=1S/C9H15N/c1-4-7-10(8-5-2)9-6-3/h4-6H,1-3,7-9H2",VPYJNCGUESNPMV-UHFFFAOYSA-N,C=CCN(CC=C)CC=C,-1.7395,0.0,1,G1
B-459,triethanolamine,"InChI=1S/C6H15NO3/c8-4-1-7(2-5-9)3-6-10/h8-10H,1-6H2",GSEJCLTVZPLZKY-UHFFFAOYSA-N,OCCN(CCO)CCO,0.8263,0.0,1,G1
B-460,2-dibutylaminoethanol,"InChI=1S/C10H23NO/c1-3-5-7-11(9-10-12)8-6-4-2/h12H,3-10H2,1-2H3",IWSZDQRGNFLMJS-UHFFFAOYSA-N,CCCCN(CCO)CCCC,-1.6367,0.0,1,G1
B-462,2-ethylhexyl acrylate,"InChI=1S/C11H20O2/c1-4-7-8-10(5-2)9-13-11(12)6-3/h6,10H,3-5,7-9H2,1-2H3",GOXQRTZXKQZDDN-UHFFFAOYSA-N,CCCCC(CC)COC(=O)C=C,-3.2655,0.0,1,G1
B-463,di-2-ethylhexyl adipate,"InChI=1S/C22H42O4/c1-5-9-13-19(7-3)17-25-21(23)15-11-12-16-22(24)26-18-20(8-4)14-10-6-2/h19-20H,5-18H2,1-4H3",SAOKZLXYCUGLFA-UHFFFAOYSA-N,CCCCC(CC)COC(=O)CCCCC(=O)OCC(CC)CCCC,-5.6768,0.0,1,G1
B-464,(2-bromoethyl)benzene,"InChI=1S/C8H9Br/c9-7-6-8-4-2-1-3-5-8/h1-5H,6-7H2",WMPPDTMATNBGJN-UHFFFAOYSA-N,BrCCc1ccccc1,-3.6757,0.0,1,G1
B-465,n-methylbenzylamine,"InChI=1S/C8H11N/c1-9-7-8-5-3-2-4-6-8/h2-6,9H,7H2,1H3",RIWRFSMVIUAEBX-UHFFFAOYSA-N,CNCc1ccccc1,0.9166,0.0,1,G1
B-467,"n,n-dimethylbenzylamine","InChI=1S/C9H13N/c1-10(2)8-9-6-4-3-5-7-9/h3-7H,8H2,1-2H3",XXBDWLFCJWSEKW-UHFFFAOYSA-N,CN(C)Cc1ccccc1,-1.0518,0.0,1,G1
B-468,4-methylacetanilide,"InChI=1S/C9H11NO/c1-7-3-5-9(6-4-7)10-8(2)11/h3-6H,1-2H3,(H,10,11)",YICAMJWHIUMFDI-UHFFFAOYSA-N,CC(=O)Nc1ccc(C)cc1,-2.0946,0.06729999999999992,2,G3
B-471,p-toluenesulfonic acid,"InChI=1S/C7H8O3S/c1-6-2-4-7(5-3-6)11(8,9)10/h2-5H,1H3,(H,8,9,10)",JOXIMZWYDAKGHI-UHFFFAOYSA-N,Cc1ccc(cc1)[S](O)(=O)=O,0.5564,0.0,1,G1