ID,Name,InChI,InChIKey,SMILES,Solubility,SD,Occurrences,Group
B-2588,"urea, 1-ethyl-1-o-tolyl-","InChI=1S/C10H14N2O/c1-3-12(10(11)13)9-7-5-4-6-8(9)2/h4-7H,3H2,1-2H3,(H2,11,13)",DVVVPMHPSRJZQX-UHFFFAOYSA-N,CCN(C(N)=O)c1ccccc1C,-0.2096,0.0,1,G1
B-2589,"5-pyrimidineacetic acid, 1,2,3,4-tetrahydro-2,4-","InChI=1S/C6H6N2O4/c9-4(10)1-3-2-7-6(12)8-5(3)11/h2H,1H2,(H,9,10)(H2,7,8,11,12)",ZVGODTQUYAKZMK-UHFFFAOYSA-N,OC(=O)CC1=CNC(=O)NC1=O,-1.6287,0.0,1,G1
B-2590,"1,2-pentanediol, 1-phenyl-2-propyl-","InChI=1S/C14H22O2/c1-3-10-14(16,11-4-2)13(15)12-8-6-5-7-9-12/h5-9,13,15-16H,3-4,10-11H2,1-2H3",FGVUALJOVZKHOH-UHFFFAOYSA-N,CCCC(O)(CCC)C(O)c1ccccc1,-2.648,0.0,1,G1
B-2591,"1,2-hexanediol, 2-butyl-1phenyl-","InChI=1S/C16H26O2/c1-3-5-12-16(18,13-6-4-2)15(17)14-10-8-7-9-11-14/h7-11,15,17-18H,3-6,12-13H2,1-2H3",MGJOTHOXCFYBTC-UHFFFAOYSA-N,CCCCC(O)(CCCC)C(O)c1ccccc1,-3.2225,0.0,1,G1
B-2592,"pyridine, 2,3,4,6-tetramethyl-","InChI=1S/C9H13N/c1-6-5-7(2)10-9(4)8(6)3/h5H,1-4H3",QBSVEFGWBSANTE-UHFFFAOYSA-N,Cc1cc(C)c(C)c(C)n1,-1.3069,0.0,1,G1
B-2593,digoxin,"InChI=1S/C41H64O14/c1-19-36(47)28(42)15-34(50-19)54-38-21(3)52-35(17-30(38)44)55-37-20(2)51-33(16-29(37)43)53-24-8-10-39(4)23(13-24)6-7-26-27(39)14-31(45)40(5)25(9-11-41(26,40)48)22-12-32(46)49-18-22/h12,19-21,23-31,33-38,42-45,47-48H,6-11,13-18H2,1-5H3/t19-,20-,21-,23-,24+,25-,26-,27+,28+,29+,30+,31-,33+,34+,35+,36-,37-,38-,39+,40+,41+/m1/s1",LTMHDMANZUZIPE-PUGKRICDSA-N,C[C@H]1O[C@H](C[C@H](O)[C@@H]1O)O[C@H]2[C@@H](O)C[C@@H](O[C@@H]2C)O[C@H]3[C@@H](O)C[C@@H](O[C@@H]3C)O[C@H]4CC[C@@]5(C)[C@H](CC[C@@H]6[C@@H]5C[C@@H](O)[C@]7(C)[C@H](CC[C@]67O)C8=CC(=O)OC8)C4,-4.0811,0.0,1,G1
B-2594,chloraniformethane,"InChI=1S/C9H7Cl5N2O/c10-6-2-1-5(3-7(6)11)16-8(15-4-17)9(12,13)14/h1-4,8,16H,(H,15,17)",REEFSLKDEDEWAO-UHFFFAOYSA-N,Clc1ccc(NC(NC=O)C(Cl)(Cl)Cl)cc1Cl,-3.3228,0.0,1,G1
B-2595,"1,2,4-thiadiazolidine-3,5-dithione","InChI=1S/C2H2N2S3/c5-1-3-2(6)7-4-1/h(H2,3,4,5,6)",OTNSJAUBOYWVEB-UHFFFAOYSA-N,S=C1NSC(=S)N1,-1.7618,0.0,1,G1
B-2597,tonalid,"InChI=1S/C18H26O/c1-11-8-16-15(9-14(11)13(3)19)17(4,5)10-12(2)18(16,6)7/h8-9,12H,10H2,1-7H3",DNRJTBAOUJJKDY-UHFFFAOYSA-N,CC1CC(C)(C)c2cc(C(C)=O)c(C)cc2C1(C)C,-5.3154,0.0,1,G1
B-2598,"1,3-benzenedicarboxylic acid, 2-nitro-","InChI=1S/C8H5NO6/c10-7(11)4-2-1-3-5(8(12)13)6(4)9(14)15/h1-3H,(H,10,11)(H,12,13)",CAHWDGJDQYAFHM-UHFFFAOYSA-N,OC(=O)c1cccc(C(O)=O)c1[N+]([O-])=O,-1.9901,0.0,1,G1
B-2600,"2-butanol, 3-chloro-2-methyl-","InChI=1S/C5H11ClO/c1-4(6)5(2,3)7/h4,7H,1-3H3",YYHQXKBKFKTDMP-UHFFFAOYSA-N,CC(Cl)C(C)(C)O,-0.2926,0.0,1,G1
B-2601,"4,6-dinitro-biphenyl-3-ol","InChI=1S/C12H8N2O5/c15-12-6-9(8-4-2-1-3-5-8)10(13(16)17)7-11(12)14(18)19/h1-7,15H",XIAPTRBHEBTAOZ-UHFFFAOYSA-N,Oc1cc(c2ccccc2)c(cc1[N+]([O-])=O)[N+]([O-])=O,-4.4611,0.0,1,G1
B-2602,fosthietan,"InChI=1S/C6H12NO3PS2/c1-3-9-11(8,10-4-2)7-6-12-5-13-6/h3-5H2,1-2H3",RHJOIOVESMTJEK-UHFFFAOYSA-N,CCO[P](=O)(OCC)N=C1SCS1,-0.6835,0.0,1,G1
B-2603,2-(thiocyanatemethylthio)benzothiazole,"InChI=1S/C9H6N2S3/c10-5-12-6-13-9-11-7-3-1-2-4-8(7)14-9/h1-4H,6H2",TUBQDCKAWGHZPF-UHFFFAOYSA-N,N#CSCSc1sc2ccccc2n1,-3.2803,0.0,1,G1
B-2604,"4-heptanol, 2-methyl-","InChI=1S/C8H18O/c1-4-5-8(9)6-7(2)3/h7-9H,4-6H2,1-3H3",QXPLZEKPCGUWEM-UHFFFAOYSA-N,CCCC(O)CC(C)C,-1.9079,0.0,1,G1
B-2605,"benzoic acid, 5-bromo-2-chloro-","InChI=1S/C7H4BrClO2/c8-4-1-2-6(9)5(3-4)7(10)11/h1-3H,(H,10,11)/p-1",FGERXQWKKIVFQG-UHFFFAOYSA-M,[O-]C(=O)c1cc(Br)ccc1Cl,-1.952,0.0,1,G1
B-2606,"2h-1,4-benzoxazin-3(4h)-one, 4-methyl-","InChI=1S/C9H9NO2/c1-10-7-4-2-3-5-8(7)12-6-9(10)11/h2-5H,6H2,1H3",DBJMEBUKQVZWMD-UHFFFAOYSA-N,CN1C(=O)COc2ccccc12,-2.1445,0.0,1,G1
B-2608,di-sec-butanolamine,"InChI=1S/C8H19NO2/c1-3-7(10)5-9-6-8(11)4-2/h7-11H,3-6H2,1-2H3",KQIXMZWXFFHRAQ-UHFFFAOYSA-N,CCC(O)CNCC(O)CC,0.7925,0.0,1,G1
B-2609,isopentyl nitrate,"InChI=1S/C5H11NO3/c1-3-4-5(2)9-6(7)8/h5H,3-4H2,1-2H3",RWRBSYOTDDOXKC-UHFFFAOYSA-N,CCCC(C)O[N+]([O-])=O,-2.4809,0.0,1,G1
B-2610,cartap hydrochloride,"InChI=1S/C7H15N3O2S2.ClH/c1-10(2)5(3-13-6(8)11)4-14-7(9)12;/h5H,3-4H2,1-2H3,(H2,8,11)(H2,9,12);1H",MSHXTAQSSIEBQS-UHFFFAOYSA-N,[Cl-].C[NH+](C)C(CSC(N)=O)CSC(N)=O,-0.1364,0.0,1,G1
B-2611,"1,2,3-thiadiazole-4-carboxylic acid, 5-methyl-","InChI=1S/C4H4N2O2S/c1-2-3(4(7)8)5-6-9-2/h1H3,(H,7,8)",ZLJIFINJKVSIRN-UHFFFAOYSA-N,Cc1snnc1C(O)=O,-0.4598,0.0,1,G1
B-2612,biopterin,"InChI=1S/C9H11N5O3/c1-3(15)6(16)4-2-11-7-5(12-4)8(17)14-9(10)13-7/h2-3,6,15-16H,1H3,(H3,10,11,13,14,17)",LHQIJBMDNUYRAM-UHFFFAOYSA-N,CC(O)C(O)c1cnc2NC(=NC(=O)c2n1)N,-2.5301,0.28495000000000004,2,G3
B-2615,"acetamide, n-(4-ethoxyphenyl)-2-hydroxy-","InChI=1S/C10H13NO3/c1-2-14-9-5-3-8(4-6-9)11-10(13)7-12/h3-6,12H,2,7H2,1H3,(H,11,13)",UJUHYRDNSIRHHG-UHFFFAOYSA-N,CCOc1ccc(NC(=O)CO)cc1,-2.1058,0.0,1,G1
B-2616,"acetic acid, bis(2-carboxyphenyl)-","InChI=1S/C16H12O6/c17-14(18)11-7-3-1-5-9(11)13(16(21)22)10-6-2-4-8-12(10)15(19)20/h1-8,13H,(H,17,18)(H,19,20)(H,21,22)",AOTLXSIYOKZSAI-UHFFFAOYSA-N,OC(=O)C(c1ccccc1C(O)=O)c2ccccc2C(O)=O,-2.4998,0.0,1,G1
B-2618,"benzenepropanoic acid, 2-nitro-.beta.-oxo-","InChI=1S/C9H7NO5/c11-8(5-9(12)13)6-3-1-2-4-7(6)10(14)15/h1-4H,5H2,(H,12,13)",PJDGOXXKHPBMQA-UHFFFAOYSA-N,OC(=O)CC(=O)c1ccccc1[N+]([O-])=O,-1.8434,0.0,1,G1
B-2621,"propanoic acid, 2,2,3,3-tetrafluoro-, sodium sal","InChI=1S/C3H2F4O2.Na/c4-1(5)3(6,7)2(8)9;/h1H,(H,8,9);/q;+1/p-1",SGUSXTMVKMPQKI-UHFFFAOYSA-M,[Na+].[O-]C(=O)C(F)(F)C(F)F,-0.8829,0.0,1,G1
B-2623,cyprazine,"InChI=1S/C9H14ClN5/c1-5(2)11-8-13-7(10)14-9(15-8)12-6-3-4-6/h5-6H,3-4H2,1-2H3,(H2,11,12,13,14,15)",OOHIAOSLOGDBCE-UHFFFAOYSA-N,CC(C)Nc1nc(Cl)nc(NC2CC2)n1,-3.5185,0.5007499999999998,2,G2
B-2624,prallethrin,"InChI=1S/C19H24O3/c1-7-8-13-12(4)16(10-15(13)20)22-18(21)17-14(9-11(2)3)19(17,5)6/h1,9,14,16-17H,8,10H2,2-6H3/t14-,16?,17+/m0/s1",SMKRKQBMYOFFMU-DRXWIORDSA-N,CC(C)=C[C@H]1[C@H](C(=O)OC2CC(=O)C(=C2C)CC#C)C1(C)C,-4.5746,0.0,1,G1
B-2628,"1h-purine-2,6-dione, 3,7-dihydro-7-(3-hydroxypro","InChI=1S/C10H14N4O3/c1-12-8-7(9(16)13(2)10(12)17)14(6-11-8)4-3-5-15/h6,15H,3-5H2,1-2H3",QCGRMMZPZDAITA-UHFFFAOYSA-N,CN1C(=O)N(C)c2ncn(CCCO)c2C1=O,-0.1551,0.0,1,G1
B-2630,formetanate hydrochloride,"InChI=1S/C11H15N3O2.ClH/c1-12-11(15)16-10-6-4-5-9(7-10)13-8-14(2)3;/h4-8H,1-3H3,(H,12,15);1H",MYPKGPZHHQEODQ-UHFFFAOYSA-N,[H+].[Cl-].CNC(=O)Oc1cccc(c1)N=CN(C)C,0.5037,0.0,1,G1
B-2634,"octanedioic acid, 3,3,6,6-tetramethyl-","InChI=1S/C12H22O4/c1-11(2,7-9(13)14)5-6-12(3,4)8-10(15)16/h5-8H2,1-4H3,(H,13,14)(H,15,16)",XCPSWBNEOGUWCT-UHFFFAOYSA-N,CC(C)(CCC(C)(C)CC(O)=O)CC(O)=O,-3.1319,0.0,1,G1
B-2635,n-hexyl nicotinoate,"InChI=1S/C12H17NO2/c1-2-3-4-5-9-15-12(14)11-7-6-8-13-10-11/h6-8,10H,2-5,9H2,1H3",RVYGVBZGSFLJKH-UHFFFAOYSA-N,CCCCCCOC(=O)c1cccnc1,-2.6538,0.0,1,G1
B-2636,"phosphonic acid, (1,6-hexanediylbis(nitrilobis(m","InChI=1S/C10H28N2O12P4/c13-25(14,15)7-11(8-26(16,17)18)5-3-1-2-4-6-12(9-27(19,20)21)10-28(22,23)24/h1-10H2,(H2,13,14,15)(H2,16,17,18)(H2,19,20,21)(H2,22,23,24)",KIDJHPQACZGFTI-UHFFFAOYSA-N,O[P](O)(=O)CN(CCCCCCN(C[P](O)(O)=O)C[P](O)(O)=O)C[P](O)(O)=O,-1.5161,0.0,1,G1
B-2637,"1h-purin-8-amine, n,n-dimethyl-","InChI=1S/C7H9N5/c1-12(2)7-10-5-3-8-4-9-6(5)11-7/h3-4H,1-2H3,(H,8,9,10,11)",WNLBOWJFJNZYPN-UHFFFAOYSA-N,CN(C)c1[nH]c2cncnc2n1,-1.3885,0.0,1,G1
B-2639,"d-glucose, (aminocarbonyl)hydrazone","InChI=1S/C7H15N3O6/c8-7(16)10-9-1-3(12)5(14)6(15)4(13)2-11/h1,3-6,11-15H,2H2,(H3,8,10,16)/t3-,4+,5+,6+/m0/s1",NOUQGOYNEGWDCZ-SLPGGIOYSA-N,NC(=O)NN=C[C@H](O)[C@@H](O)[C@H](O)[C@H](O)CO,-1.0041,0.0,1,G1
B-2642,triazophos,"InChI=1S/C12H16N3O3PS/c1-3-16-19(20,17-4-2)18-12-13-10-15(14-12)11-8-6-5-7-9-11/h5-10H,3-4H2,1-2H3",AMFGTOFWMRQMEM-UHFFFAOYSA-N,CCO[P](=S)(OCC)Oc1ncn(n1)c2ccccc2,-3.9049,0.09855000000000014,2,G3
B-2643,"naphtho[2,3-c]furan-1(3h)-one, 3,3-dimethyl-","InChI=1S/C14H12O2/c1-14(2)12-8-10-6-4-3-5-9(10)7-11(12)13(15)16-14/h3-8H,1-2H3",RCRSAOBHVMTZFO-UHFFFAOYSA-N,CC1(C)OC(=O)c2cc3ccccc3cc12,-2.9844,0.0,1,G1
B-2644,2-methyl-4-bromoacetanilide,"InChI=1S/C9H10BrNO/c1-6-5-8(10)3-4-9(6)11-7(2)12/h3-5H,1-2H3,(H,11,12)",IJZSFOIZVXCSFP-UHFFFAOYSA-N,CC(=O)Nc1ccc(Br)cc1C,-1.756,0.0,1,G1
B-2645,"acetamide-2-chloro-n-(2,6-dimethylphenyl)-n-((2-","InChI=1S/C15H22ClNO2/c1-11(2)9-19-10-17(14(18)8-16)15-12(3)6-5-7-13(15)4/h5-7,11H,8-10H2,1-4H3",BIQOEDQVNIYWPQ-UHFFFAOYSA-N,CC(C)COCN(C(=O)CCl)c1c(C)cccc1C,-3.6822,0.0,1,G1
B-2647,"hexanedioic acid, 3-butyl-","InChI=1S/C10H18O4/c1-2-3-4-8(7-10(13)14)5-6-9(11)12/h8H,2-7H2,1H3,(H,11,12)(H,13,14)",SYBIZQPCZZHMNO-UHFFFAOYSA-N,CCCCC(CCC(O)=O)CC(O)=O,-1.3974,0.0,1,G1
B-2649,"cyclopentaneacetic acid, 3-oxo-2-pentyl-, methyl","InChI=1S/C13H22O3/c1-3-4-5-6-11-10(7-8-12(11)14)9-13(15)16-2/h10-11H,3-9H2,1-2H3",KVWWIYGFBYDJQC-UHFFFAOYSA-N,CCCCCC1C(CCC1=O)CC(=O)OC,-2.9076,0.1558983168999999,2,G3
B-2651,"phenol, 2-iodo-6-methyl-","InChI=1S/C7H7IO/c1-5-3-2-4-6(8)7(5)9/h2-4,9H,1H3",GZZUGNNHSZONTO-UHFFFAOYSA-N,Cc1cccc(I)c1O,-1.8378,0.0,1,G1
B-2652,"2,5-dichlorodiphenyl ether",InChI=1S/C12H8Cl2O/c13-9-6-7-11(14)12(8-9)15-10-4-2-1-3-5-10/h1-8H,VITXVDNQHXYQSK-UHFFFAOYSA-N,Clc1ccc(Cl)c(Oc2ccccc2)c1,-4.9703,0.0,1,G1
B-2653,"3,4',5-trichlorodiphenyl ether",InChI=1S/C12H7Cl3O/c13-8-1-3-11(4-2-8)16-12-6-9(14)5-10(15)7-12/h1-7H,CCEZFZGXWFJQEF-UHFFFAOYSA-N,Clc1ccc(Oc2cc(Cl)cc(Cl)c2)cc1,-5.5201,0.0,1,G1
B-2656,"acetic acid, (2,4-dinitrophenoxy)-","InChI=1S/C8H6N2O7/c11-8(12)4-17-7-2-1-5(9(13)14)3-6(7)10(15)16/h1-3H,4H2,(H,11,12)",OWEDBRWCJFWVFZ-UHFFFAOYSA-N,OC(=O)COc1ccc(cc1[N+]([O-])=O)[N+]([O-])=O,-1.9369,0.0,1,G1
B-2658,"2,4-d, isooctyl ester","InChI=1S/C16H22Cl2O3/c1-3-5-6-12(4-2)10-21-16(19)11-20-15-8-7-13(17)9-14(15)18/h7-9,12H,3-6,10-11H2,1-2H3",QZSFJRIWRPJUOH-UHFFFAOYSA-N,CCCCC(CC)COC(=O)COc1ccc(Cl)cc1Cl,-7.0122,0.0,1,G1
B-2659,hexene - mixture of isomers,"InChI=1S/C6H12/c1-3-5-6-4-2/h3,5H,4,6H2,1-2H3/b5-3+",RYPKRALMXUUNKS-HWKANZROSA-N,CCC\C=C\C,-3.2262,0.0,1,G1
B-2660,dipropylene glycol,"InChI=1S/C6H14O3/c1-3-5(7)9-6(8)4-2/h5-8H,3-4H2,1-2H3",QYSXYAURTRCDJU-UHFFFAOYSA-N,CCC(O)OC(O)CC,0.8723,0.0,1,G1
B-2661,"benzenesulfonamide, 4-(mannopyranosylamino)-","InChI=1S/C12H18N2O7S/c13-22(19,20)7-3-1-6(2-4-7)14-12-11(18)10(17)9(16)8(5-15)21-12/h1-4,8-12,14-18H,5H2,(H2,13,19,20)/t8-,9-,10+,11+,12?/m1/s1",RMCYKIOWPVOBJX-IKQSSVLVSA-N,N[S](=O)(=O)c1ccc(NC2O[C@H](CO)[C@@H](O)[C@H](O)[C@@H]2O)cc1,-0.9801,0.0,1,G1
B-2663,1-<hydroxyimino-(seqtrans)>-1-phenyl-acetone,"InChI=1S/C9H9NO2/c1-7(11)9(10-12)8-5-3-2-4-6-8/h2-6,12H,1H3/b10-9+",YQHWURFNAULYNW-MDZDMXLPSA-N,CC(=O)C(=N\O)/c1ccccc1,-2.3676,0.0,1,G1
B-2666,hydroxycinnamic acid,"InChI=1S/C9H8O3/c10-8-3-1-2-7(6-8)4-5-9(11)12/h1-6,10H,(H,11,12)/b5-4-",KKSDGJDHHZEWEP-PLNGDYQASA-N,OC(=O)\C=C/c1cccc(O)c1,-2.099,0.0,1,G1
B-2667,dowanol tpm,"InChI=1S/C10H22O4/c1-8(5-11)14-10(3)7-13-9(2)6-12-4/h8-11H,5-7H2,1-4H3",GVZNXUAPPLHUOM-UHFFFAOYSA-N,COCC(C)OCC(C)OC(C)CO,0.6855,0.0,1,G1
B-2669,fosamine ammonium salt,"InChI=1S/C3H8NO4P.H3N/c1-2-8-9(6,7)3(4)5;/h2H2,1H3,(H2,4,5)(H,6,7);1H3",OTSAMNSACVKIOJ-UHFFFAOYSA-N,[NH4+].CCO[P]([O-])(=O)C(N)=O,0.7693,0.0,1,G1
B-2671,"1,4-naphthalenedione, 2-(methylthio)-","InChI=1S/C11H8O2S/c1-14-10-6-9(12)7-4-2-3-5-8(7)11(10)13/h2-6H,1H3",GGFFBRRZAKLGFX-UHFFFAOYSA-N,CSC1=CC(=O)c2ccccc2C1=O,-4.4651,0.0,1,G1
B-2675,tirpate,"InChI=1S/C8H14N2O2S2/c1-6-4-13-8(2,14-6)5-10-12-7(11)9-3/h5-6H,4H2,1-3H3,(H,9,11)/b10-5+",GHFMMRFMDHDOBP-BJMVGYQFSA-N,CNC(=O)O/N=C/C1(C)SCC(C)S1,-2.3698,0.0,1,G1
B-2676,cresyl diphenyl phosphate,"InChI=1S/C19H17O4P/c1-16-12-14-19(15-13-16)23-24(20,21-17-8-4-2-5-9-17)22-18-10-6-3-7-11-18/h2-15H,1H3",OJUZRFGUKHQNJX-UHFFFAOYSA-N,Cc1ccc(O[P](=O)(Oc2ccccc2)Oc3ccccc3)cc1,-6.1517,0.0,1,G1
B-2677,"phosphoric acid, bis(methylphenyl) phenyl ester","InChI=1S/C20H19O4P/c1-16-12-14-19(15-13-16)23-25(21,22-18-9-4-3-5-10-18)24-20-11-7-6-8-17(20)2/h3-15H,1-2H3",DAZHWGHCARQALS-UHFFFAOYSA-N,Cc1ccc(O[P](=O)(Oc2ccccc2)Oc3ccccc3C)cc1,-6.3733,0.0,1,G1
B-2678,"3(2h)-isothiazolone, 2-octyl-","InChI=1S/C11H19NOS/c1-2-3-4-5-6-7-9-12-11(13)8-10-14-12/h8,10H,2-7,9H2,1H3",JPMIIZHYYWMHDT-UHFFFAOYSA-N,CCCCCCCCN1SC=CC1=O,-2.6301,0.0,1,G1
B-2679,hexachlorobiphenyl,InChI=1S/C12H4Cl6/c13-6-4-2-1-3-5(6)7-8(14)10(16)12(18)11(17)9(7)15/h1-4H,RUEIBQJFGMERJD-UHFFFAOYSA-N,Clc1ccccc1c2c(Cl)c(Cl)c(Cl)c(Cl)c2Cl,-8.0133,0.0,1,G1
B-2680,"phosphoric acid, diethyl 2-methylpropyl ester","InChI=1S/C8H19O4P/c1-5-10-13(9,11-6-2)12-7-8(3)4/h8H,5-7H2,1-4H3",VAUVEZMZAPNZOT-UHFFFAOYSA-N,CCO[P](=O)(OCC)OCC(C)C,-1.1765,0.0,1,G1
B-2681,"pentanoic acid, 4-oxo-3-(phenylmethylene)-","InChI=1S/C12H12O3/c1-9(13)11(8-12(14)15)7-10-5-3-2-4-6-10/h2-7H,8H2,1H3,(H,14,15)",BNQYXFAVUMPZFG-UHFFFAOYSA-N,CC(=O)C(CC(O)=O)=Cc1ccccc1,-1.6111,0.0,1,G1
B-2683,"4(1h)-pyrimidinone, 5-bromo-2-phenyl-","InChI=1S/C10H7BrN2O/c11-8-6-12-9(13-10(8)14)7-4-2-1-3-5-7/h1-6H,(H,12,13,14)",MWZGHIGOSHTXGY-UHFFFAOYSA-N,BrC1=CNC(=NC1=O)c2ccccc2,-3.4792,0.0,1,G1
B-2686,"butanoic acid, 1,2-ethanediylbis(oxy-2,1-ethaned","InChI=1S/C14H26O6/c1-3-5-13(15)19-11-9-17-7-8-18-10-12-20-14(16)6-4-2/h3-12H2,1-2H3",AJMJPGWUPHIMKQ-UHFFFAOYSA-N,CCCC(=O)OCCOCCOCCOC(=O)CCC,-1.5598,0.0,1,G1
B-2687,"3-pyridinecarboxamide, n-[(phenylamino)carbonyl]","InChI=1S/C13H11N3O2/c17-12(10-5-4-8-14-9-10)16-13(18)15-11-6-2-1-3-7-11/h1-9H,(H2,15,16,17,18)",QSHWUEPEDUMMBW-UHFFFAOYSA-N,O=C(NC(=O)c1cccnc1)Nc2ccccc2,-3.3825,0.0,1,G1
B-2689,hexachlorocyclohexane,"InChI=1S/3C6H6Cl6/c7-2-1-6(11,12)5(10)4(9)3(2)8;7-3-1-2-5(9,10)4(8)6(3,11)12;7-1-2(8)4(10)6(12)5(11)3(1)9/h2-5H,1H2;3-4H,1-2H2;1-6H",REDUMVQOCNAQCW-UHFFFAOYSA-N,ClC1CC(Cl)(Cl)C(Cl)C(Cl)C1Cl.ClC2CCC(Cl)(Cl)C(Cl)C2(Cl)Cl.ClC3C(Cl)C(Cl)C(Cl)C(Cl)C3Cl,-4.9408,0.0,1,G1
B-2691,tetradecanol,"InChI=1S/C14H30O/c1-3-5-6-7-8-9-10-11-13-14(15)12-4-2/h14-15H,3-13H2,1-2H3",HRDGAIGDKJXHIU-UHFFFAOYSA-N,CCCCCCCCCCC(O)CCC,-5.837000000000001,0.0,1,G1
B-2692,norflurazon,"InChI=1S/C12H9ClF3N3O/c1-17-9-6-18-19(11(20)10(9)13)8-4-2-3-7(5-8)12(14,15)16/h2-6,17H,1H3",NVGOPFQZYCNLDU-UHFFFAOYSA-N,CNC1=C(Cl)C(=O)N(N=C1)c2cccc(c2)C(F)(F)F,-3.9548,0.06536570626525474,3,G5
B-2694,ethychlozate,"InChI=1S/C11H11ClN2O2/c1-2-16-11(15)6-10-8-5-7(12)3-4-9(8)13-14-10/h3-5H,2,6H2,1H3,(H,13,14)",GLPZEHFBLBYFHN-UHFFFAOYSA-N,CCOC(=O)Cc1[nH]nc2ccc(Cl)cc12,-3.0256,0.0,1,G1
B-2696,diisooctyl phthalate,"InChI=1S/C24H38O4/c1-19(2)13-7-5-11-17-27-23(25)21-15-9-10-16-22(21)24(26)28-18-12-6-8-14-20(3)4/h9-10,15-16,19-20H,5-8,11-14,17-18H2,1-4H3",IJFPVINAQGWBRJ-UHFFFAOYSA-N,CC(C)CCCCCOC(=O)c1ccccc1C(=O)OCCCCCC(C)C,-6.6375,0.0,1,G1
B-2697,probenazole,"InChI=1S/C10H9NO3S/c1-2-7-14-10-8-5-3-4-6-9(8)15(12,13)11-10/h2-6H,1,7H2",WHHIPMZEDGBUCC-UHFFFAOYSA-N,C=CCOC1=N[S](=O)(=O)c2ccccc12,-3.1727,0.0,1,G1
B-2699,"1,1'-biphenyl, octabromo-",InChI=1S/C12H2Br8/c13-4-2-1-3(6(14)7(4)15)5-8(16)10(18)12(20)11(19)9(5)17/h1-2H,NDRKXFLZSRHAJE-UHFFFAOYSA-N,Brc1ccc(c(Br)c1Br)c2c(Br)c(Br)c(Br)c(Br)c2Br,-9.351,0.0,1,G1
B-2700,isopropyl phenyl diphenyl phosphate,"InChI=1S/C21H21O4P/c1-17(2)20-15-9-10-16-21(20)25-26(22,23-18-11-5-3-6-12-18)24-19-13-7-4-8-14-19/h3-17H,1-2H3",JJXNVYMIYBNZQX-UHFFFAOYSA-N,CC(C)c1ccccc1O[P](=O)(Oc2ccccc2)Oc3ccccc3,-5.2239,0.0,1,G1
B-2701,"2h-purine-2-thione, 1,3-dihydro-","InChI=1S/C5H4N4S/c10-5-6-1-3-4(9-5)8-2-7-3/h1-2H,(H2,6,7,8,9,10)",HDBQZGJWHMCXIL-UHFFFAOYSA-N,S=C1Nc2nc[nH]c2C=N1,-2.5803,0.0,1,G1
B-2702,"2,6-dinitro-biphenyl-3-ol","InChI=1S/C12H8N2O5/c15-10-7-6-9(13(16)17)11(12(10)14(18)19)8-4-2-1-3-5-8/h1-7,15H",RAHRBPFKDAZSCJ-UHFFFAOYSA-N,Oc1ccc(c(c2ccccc2)c1[N+]([O-])=O)[N+]([O-])=O,-3.7164,0.0,1,G1
B-2703,chloromethiuron,"InChI=1S/C10H13ClN2S/c1-7-6-8(11)4-5-9(7)12-10(14)13(2)3/h4-6H,1-3H3,(H,12,14)",IBZZDPVVVSNQOY-UHFFFAOYSA-N,CN(C)C(=S)Nc1ccc(Cl)cc1C,-3.6604,0.0,1,G1
B-2705,bioresmethrin,"InChI=1S/C22H26O3/c1-15(2)10-19-20(22(19,3)4)21(23)25-14-17-12-18(24-13-17)11-16-8-6-5-7-9-16/h5-10,12-13,19-20H,11,14H2,1-4H3",VEMKTZHHVJILDY-UHFFFAOYSA-N,CC(C)=CC1C(C(=O)OCc2coc(Cc3ccccc3)c2)C1(C)C,-6.0524,0.4488000000000003,2,G3
B-2706,"1,2-dithiane-3,6-dicarboxylic acid, cis-","InChI=1S/C6H8O4S2/c7-5(8)3-1-2-4(6(9)10)12-11-3/h3-4H,1-2H2,(H,7,8)(H,9,10)/t3-,4+",NQRRVGBUZRSXRF-ZXZARUISSA-N,OC(=O)[C@@H]1CC[C@@H](SS1)C(O)=O,-1.1709,0.0,1,G1
B-2707,"2,4(1h,3h)-pyrimidinedione, 1-methyl-5-nitro-","InChI=1S/C5H5N3O4/c1-7-2-3(8(11)12)4(9)6-5(7)10/h2H,1H3,(H,6,9,10)",JTVBCXIVJCAUBK-UHFFFAOYSA-N,CN1C=C(C(=O)NC1=O)[N+]([O-])=O,-1.9977,0.0,1,G1
B-2712,benzoximate,"InChI=1S/C18H18ClNO5/c1-4-20(25-18(22)12-8-6-5-7-9-12)17(21)15-14(23-2)11-10-13(19)16(15)24-3/h5-11H,4H2,1-3H3",HOERQTQCTISLFR-UHFFFAOYSA-N,CCN(OC(=O)c1ccccc1)C(=O)c2c(OC)ccc(Cl)c2OC,-4.0837,0.0,1,G1
B-2713,atenolol,"InChI=1S/C14H22N2O3/c1-10(2)16-8-12(17)9-19-13-5-3-11(4-6-13)7-14(15)18/h3-6,10,12,16-17H,7-9H2,1-2H3,(H2,15,18)",METKIMKYRPQLGS-UHFFFAOYSA-N,CC(C)NCC(O)COc1ccc(CC(N)=O)cc1,-1.3016,0.27580000000000005,2,G3
B-2714,"propanediamide, 2,2-diethyl-","InChI=1S/C7H14N2O2/c1-3-7(4-2,5(8)10)6(9)11/h3-4H2,1-2H3,(H2,8,10)(H2,9,11)",IYZYMNZTUFOYHR-UHFFFAOYSA-N,CCC(CC)(C(N)=O)C(N)=O,-1.1992,0.0,1,G1
B-2715,Mecarphon,"InChI=1S/C7H14NO4PS2/c1-8(7(10)11-2)6(9)5-15-13(4,14)12-3/h5H2,1-4H3",PUTUPQVEMBRCAG-UHFFFAOYSA-N,COC(=O)N(C)C(=O)CS[P](C)(=S)OC,-1.9563,0.0,1,G1
B-2717,hexadecanol,"InChI=1S/C16H34O/c1-3-5-6-7-8-9-10-11-12-13-15-16(17)14-4-2/h16-17H,3-15H2,1-2H3",JIMMILCKVYOFET-UHFFFAOYSA-N,CCCCCCCCCCCCC(O)CCC,-6.7708,0.0,1,G1
B-2718,"1-naphthalenecarboxamide, n-hydroxy-n-phenyl-","InChI=1S/C17H13NO2/c19-17(18(20)14-9-2-1-3-10-14)16-12-6-8-13-7-4-5-11-15(13)16/h1-12,20H",MDPNINYZZKJMBC-UHFFFAOYSA-N,ON(c1ccccc1)C(=O)c2cccc3ccccc23,-3.9433,0.0,1,G1
B-2719,"benzamide, n-hydroxy-n-1-naphthalenyl-","InChI=1S/C17H13NO2/c19-17(14-8-2-1-3-9-14)18(20)16-12-6-10-13-7-4-5-11-15(13)16/h1-12,20H",PZBPQFNCQFUIOP-UHFFFAOYSA-N,ON(C(=O)c1ccccc1)c2cccc3ccccc23,-3.3065,0.0,1,G1
B-2720,"benzamide, 3,5-dinitro-n-phenyl-n-hydroxy-","InChI=1S/C13H9N3O6/c17-13(14(18)10-4-2-1-3-5-10)9-6-11(15(19)20)8-12(7-9)16(21)22/h1-8,18H",CHBUFRFETPYQCI-UHFFFAOYSA-N,ON(c1ccccc1)C(=O)c2cc(cc(c2)[N+]([O-])=O)[N+]([O-])=O,-3.6367,0.0,1,G1
B-2721,"acetic acid, [(aminothioxomethyl)thio]-","InChI=1S/C3H5NO2S2/c4-3(7)8-1-2(5)6/h1H2,(H2,4,7)(H,5,6)",KXMZHKOZDQLZMO-UHFFFAOYSA-N,NC(=S)SCC(O)=O,-0.7482,0.0,1,G1
B-2722,"glycine, n-(dithiocarboxy)-, n-ester with mercap","InChI=1S/C5H7NO4S2/c7-3(8)1-6-5(11)12-2-4(9)10/h1-2H2,(H,6,11)(H,7,8)(H,9,10)",FKNJURNHJJFOFH-UHFFFAOYSA-N,OC(=O)CNC(=S)SCC(O)=O,-1.3011,0.0,1,G1
B-2723,"benzamide, n-[2-(1h-imidazol-4-yl)ethyl]-","InChI=1S/C12H13N3O/c16-12(10-4-2-1-3-5-10)14-7-6-11-8-13-9-15-11/h1-5,8-9H,6-7H2,(H,13,15)(H,14,16)",DAUCLDROLUGJDY-UHFFFAOYSA-N,O=C(NCCc1c[nH]cn1)c2ccccc2,-0.634,0.0,1,G1
B-2724,isodecyl diphenyl phosphate,"InChI=1S/C22H31O4P/c1-20(2)14-8-4-3-5-13-19-24-27(23,25-21-15-9-6-10-16-21)26-22-17-11-7-12-18-22/h6-7,9-12,15-18,20H,3-5,8,13-14,19H2,1-2H3",RYUJRXVZSJCHDZ-UHFFFAOYSA-N,CC(C)CCCCCCCO[P](=O)(Oc1ccccc1)Oc2ccccc2,-5.7165,0.9129292636500002,2,G2
B-2725,"2-propanol, 1-(1-methyl-2-propoxyethoxy)-","InChI=1S/C9H20O3/c1-4-5-11-7-9(3)12-6-8(2)10/h8-10H,4-7H2,1-3H3",WEZPLQKRXDBPEP-UHFFFAOYSA-N,CCCOCC(C)OCC(C)O,-0.0701,0.0,1,G1
B-2728,"1,2:3,4-diepoxybutane (2s,3s)","InChI=1S/C4H6O2/c1-3(5-1)4-2-6-4/h3-4H,1-2H2/t3-,4-/m0/s1",ZFIVKAOQEXOYFY-IMJSIDKUSA-N,C1O[C@@H]1[C@@H]2CO2,1.065,0.0,1,G1
B-2730,"propanoic acid, 2-(2,4,5-trichlorophenoxy)-, (r)","InChI=1S/C9H7Cl3O3/c1-4(9(13)14)15-8-3-6(11)5(10)2-7(8)12/h2-4H,1H3,(H,13,14)/t4-/m1/s1",ZLSWBLPERHFHIS-SCSAIBSYSA-N,C[C@@H](Oc1cc(Cl)c(Cl)cc1Cl)C(O)=O,-3.1295,0.0,1,G1
B-2731,"2-furanol, 5-ethyltetrahydro-","InChI=1S/C6H12O2/c1-2-5-3-4-6(7)8-5/h5-7H,2-4H2,1H3",VPPOYUGGWUIGDG-UHFFFAOYSA-N,CCC1CCC(O)O1,-0.0651,0.0,1,G1
B-2732,"1,2:3,4-diepoxybutane (2r,3r)","InChI=1S/C4H6O2/c1-3(5-1)4-2-6-4/h3-4H,1-2H2/t3-,4-/m1/s1",ZFIVKAOQEXOYFY-QWWZWVQMSA-N,C1O[C@H]1[C@H]2CO2,1.065,0.0,1,G1
B-2733,"1,6-dioxaspiro[4,4]nonane, 2,7-dimethyl-","InChI=1S/C9H16O2/c1-7-3-5-9(10-7)6-4-8(2)11-9/h7-8H,3-6H2,1-2H3",PUKTVFNQVGOXPI-UHFFFAOYSA-N,CC1CCC2(CCC(C)O2)O1,-0.4487,0.0,1,G1
B-2734,"thymidine, 3'-azido-3'-deoxy-","InChI=1S/C10H13N5O4/c1-5-3-15(10(18)12-9(5)17)8-2-6(13-14-11)7(4-16)19-8/h3,6-8,16H,2,4H2,1H3,(H,12,17,18)/t6-,7+,8+/m0/s1",HBOMLICNUCNMMY-XLPZGREQSA-N,CC1=CN([C@H]2C[C@H](N=[N+]=[N-])[C@@H](CO)O2)C(=O)NC1=O,-1.1221,0.0,1,G1