ID,Name,InChI,InChIKey,SMILES,Solubility,SD,Occurrences,Group
C-551,methyl 1-(toluene-4-sulfonyl)cyclopropyl-1-carboxylate; 1-(toluene-4-sulfonyl)cyclopropanecarboxylic acid methyl ester,"InChI=1S/C12H14O4S/c1-9-3-5-10(6-4-9)17(14,15)12(7-8-12)11(13)16-2/h3-6H,7-8H2,1-2H3",GQFAQGSQOWKLHH-UHFFFAOYSA-N,COC(=O)C1(CC1)[S](=O)(=O)C2=CC=C(C)C=C2,-2.88,0.0,1,G1
C-553,scopolamine;  hyoscine,"InChI=1S/C17H21NO4/c1-18-13-7-11(8-14(18)16-15(13)22-16)21-17(20)12(9-19)10-5-3-2-4-6-10/h2-6,11-16,19H,7-9H2,1H3",STECJAGHUSJQJN-UHFFFAOYSA-N,CN1C2CC(CC1C3OC23)OC(=O)C(CO)C4=CC=CC=C4,-1.24,0.38,2,G3
C-555,"2,3-dichlorobiphenyl",InChI=1S/C12H8Cl2/c13-11-8-4-7-10(12(11)14)9-5-2-1-3-6-9/h1-8H,XOMKZKJEJBZBJJ-UHFFFAOYSA-N,ClC1=CC=CC(=C1Cl)C2=CC=CC=C2,-5.35,0.0,1,G1
C-556,melphalan,"InChI=1S/C13H18Cl2N2O2/c14-5-7-17(8-6-15)11-3-1-10(2-4-11)9-12(16)13(18)19/h1-4,12H,5-9,16H2,(H,18,19)",SGDBTWWWUNNDEQ-UHFFFAOYSA-N,NC(CC1=CC=C(C=C1)N(CCCl)CCCl)C(O)=O,-3.49,0.0,1,G1
C-557,asulam;  n1-(methoxycarbonyl)sulfanilamide;  asulox,"InChI=1S/C8H10N2O4S/c1-14-8(11)10-15(12,13)7-4-2-6(9)3-5-7/h2-5H,9H2,1H3,(H,10,11)",VGPYEHKOIGNJKV-UHFFFAOYSA-N,COC(=O)N[S](=O)(=O)C1=CC=C(N)C=C1,-1.76,0.050000000000000044,2,G3
C-559,deoxycorticosterone  acetate,"InChI=1S/C23H32O4/c1-14(24)27-13-21(26)20-7-6-18-17-5-4-15-12-16(25)8-10-22(15,2)19(17)9-11-23(18,20)3/h12,17-20H,4-11,13H2,1-3H3",VPGRYOFKCNULNK-UHFFFAOYSA-N,CC(=O)OCC(=O)C1CCC2C3CCC4=CC(=O)CCC4(C)C3CCC12C,-4.97,0.16999999999999993,2,G3
C-561,"o-tolidine;  3,3'-dimethylbenzidine;   4,4'-diamino-3,3'-dimethylbiphenyl","InChI=1S/C14H16N2/c1-9-7-11(3-5-13(9)15)12-4-6-14(16)10(2)8-12/h3-8H,15-16H2,1-2H3",NUIURNJTPRWVAP-UHFFFAOYSA-N,CC1=CC(=CC=C1N)C2=CC(=C(N)C=C2)C,-2.21,0.0,1,G1
C-562,acyclovir;  acv,"InChI=1S/C8H11N5O3/c9-8-11-6-5(7(15)12-8)10-3-13(6)4-16-2-1-14/h3,14H,1-2,4H2,(H3,9,11,12,15)",MKUXAQIIEYXACX-UHFFFAOYSA-N,NC1=NC2=C(N=C[N]2COCCO)C(=O)N1,-2.12,0.01154999999999995,2,G3
C-564,mestranol,"InChI=1S/C21H26O2/c1-4-21(22)12-10-19-18-7-5-14-13-15(23-3)6-8-16(14)17(18)9-11-20(19,21)2/h1,6,8,13,17-19,22H,5,7,9-12H2,2-3H3",IMSSROKUHAOUJS-UHFFFAOYSA-N,COC1=CC=C2C3CCC4(C)C(CCC4(O)C#C)C3CCC2=C1,-5.49,0.0,1,G1
C-566,phenazopyridine,"InChI=1S/C11H11N5/c12-10-7-6-9(11(13)14-10)16-15-8-4-2-1-3-5-8/h1-7H,(H4,12,13,14)",QPFYXYFORQJZEC-UHFFFAOYSA-N,NC1=NC(=C(C=C1)N=NC2=CC=CC=C2)N,-4.24,0.0,1,G1
C-568,"captan;  n-trichloromethylthio-3a,4,7,7a-tetrahydrophthalimide","InChI=1S/C9H8Cl3NO2S/c10-9(11,12)16-13-7(14)5-3-1-2-4-6(5)8(13)15/h1-2,5-6H,3-4H2",LDVVMCZRFWMZSG-UHFFFAOYSA-N,ClC(Cl)(Cl)SN1C(=O)C2CC=CCC2C1=O,-4.77,0.0,1,G1
C-569,benzoin,"InChI=1S/C14H12O2/c15-13(11-7-3-1-4-8-11)14(16)12-9-5-2-6-10-12/h1-10,13,15H",ISAOCJYIOMOJEB-UHFFFAOYSA-N,OC(C1=CC=CC=C1)C(=O)C2=CC=CC=C2,-2.85,0.0,1,G1
C-570,1-(toluene-4-sulfonyl)cyclopropanecarboxylic acid ethyl ester,"InChI=1S/C13H16O4S/c1-3-17-12(14)13(8-9-13)18(15,16)11-6-4-10(2)5-7-11/h4-7H,3,8-9H2,1-2H3",WPUICWRULLWSQY-UHFFFAOYSA-N,CCOC(=O)C1(CC1)[S](=O)(=O)C2=CC=C(C)C=C2,-3.01,0.0,1,G1
C-571,methyl 2-(4-chlorophenylsulfonyl)acetate;  2-(4-chlorophenylsulfonyl)acetic acid methyl ester,"InChI=1S/C9H9ClO4S/c1-14-9(11)6-15(12,13)8-4-2-7(10)3-5-8/h2-5H,6H2,1H3",RWMPWXCERLGUAF-UHFFFAOYSA-N,COC(=O)C[S](=O)(=O)C1=CC=C(Cl)C=C1,-2.38,0.0,1,G1
C-573,8-chlorotheophylline,"InChI=1S/C7H7ClN4O2/c1-11-4-3(9-6(8)10-4)5(13)12(2)7(11)14/h1-2H3,(H,9,10)",RYIGNEOBDRVTHA-UHFFFAOYSA-N,CN1C(=O)N(C)C2=C([NH]C(=N2)Cl)C1=O,-1.51,0.0,1,G1
C-576,"picric  acid;  2,4,6-trinitrophenol;","InChI=1S/C6H3N3O7/c10-6-4(8(13)14)1-3(7(11)12)2-5(6)9(15)16/h1-2,10H",OXNIZHLAWKMVMX-UHFFFAOYSA-N,OC1=C(C=C(C=C1[N+]([O-])=O)[N+]([O-])=O)[N+]([O-])=O,-1.97,0.357,2,G3
C-577,4-aminoantipyrine;  4-aminophenazone;  ampyrone,"InChI=1S/C11H13N3O/c1-8-10(12)11(15)14(13(8)2)9-6-4-3-5-7-9/h3-7H,12H2,1-2H3",RLFWWDJHLFCNIJ-UHFFFAOYSA-N,CN1N(C2=CC=CC=C2)C(=O)C(=C1C)N,0.31,0.505916437983806,3,G4
C-579,chlordecone;  kepone,"InChI=1S/C10Cl10O/c11-2-1(21)3(12)6(15)4(2,13)8(17)5(2,14)7(3,16)9(6,18)10(8,19)20",LHHGDZSESBACKH-UHFFFAOYSA-N,ClC1(Cl)C2(Cl)C3(Cl)C4(Cl)C(=O)C5(Cl)C3(Cl)C1(Cl)C5(Cl)C24Cl,-5.26,0.0,1,G1
C-582,1-benzenesulfonylcyclopentanecarboxylic acid methyl ester,"InChI=1S/C13H16O4S/c1-17-12(14)13(9-5-6-10-13)18(15,16)11-7-3-2-4-8-11/h2-4,7-8H,5-6,9-10H2,1H3",AXNXBYAMXGSWLR-UHFFFAOYSA-N,COC(=O)C1(CCCC1)[S](=O)(=O)C2=CC=CC=C2,-2.55,0.0,1,G1
C-583,n-phenylanthranilic  acid;  fenamic  acid,"InChI=1S/C13H11NO2/c15-13(16)11-8-4-5-9-12(11)14-10-6-2-1-3-7-10/h1-9,14H,(H,15,16)",ZWJINEZUASEZBH-UHFFFAOYSA-N,OC(=O)C1=CC=CC=C1NC2=CC=CC=C2,-4.96,0.0,1,G1
C-587,"2,4'-dichlorodiphenyl  ether",InChI=1S/C12H8Cl2O/c13-9-5-7-10(8-6-9)15-12-4-2-1-3-11(12)14/h1-8H,MWKULKMSBBSGTP-UHFFFAOYSA-N,ClC1=CC=C(OC2=C(Cl)C=CC=C2)C=C1,-5.52,0.0,1,G1
C-588,methyl  1-(4-chlorophenylsulfonyl)cyclopropane-1-carboxylate; 1-(4-chlorophenylsulfonyl)cyclopropanecarboxylic acid methyl ester,"InChI=1S/C11H11ClO4S/c1-16-10(13)11(6-7-11)17(14,15)9-4-2-8(12)3-5-9/h2-5H,6-7H2,1H3",MKKNYRRAGXWBDZ-UHFFFAOYSA-N,COC(=O)C1(CC1)[S](=O)(=O)C2=CC=C(Cl)C=C2,-3.31,0.0,1,G1
C-589,"2',3'-dideoxyinosine;  didanosine","InChI=1S/C10H12N4O3/c15-3-6-1-2-7(17-6)14-5-13-8-9(14)11-4-12-10(8)16/h4-7,15H,1-3H2,(H,11,12,16)",BXZVVICBKDXVGW-UHFFFAOYSA-N,OCC1CCC(O1)[N]2C=NC3=C2N=CNC3=O,-0.94,0.0,1,G1
C-591,isocarboxazid;  1-benzyl-2-(5-methyl-3-isoxazolylcarbonyl)hydrazine,"InChI=1S/C12H13N3O2/c1-9-7-11(15-17-9)12(16)14-13-8-10-5-3-2-4-6-10/h2-7,13H,8H2,1H3,(H,14,16)",XKFPYPQQHFEXRZ-UHFFFAOYSA-N,CC1=CC(=NO1)C(=O)NNCC2=CC=CC=C2,-2.46,0.0,1,G1
C-592,pymetrozine,"InChI=1S/C10H11N5O/c1-8-7-15(10(16)14-13-8)12-6-9-3-2-4-11-5-9/h2-6H,7H2,1H3,(H,14,16)/b12-6+",QHMTXANCGGJZRX-WUXMJOGZSA-N,CC1=NNC(=O)N(C1)/N=C/C2=CC=CN=C2,-2.87,0.0,1,G1
C-593,procymidone;  dicyclidine,"InChI=1S/C13H11Cl2NO2/c1-12-6-13(12,2)11(18)16(10(12)17)9-4-7(14)3-8(15)5-9/h3-5H,6H2,1-2H3",QXJKBPAVAHBARF-UHFFFAOYSA-N,CC12CC1(C)C(=O)N(C2=O)C3=CC(=CC(=C3)Cl)Cl,-4.8,0.0,1,G1
C-594,chloramphenicol,"InChI=1S/C11H12Cl2N2O5/c12-10(13)11(18)14-8(5-16)9(17)6-1-3-7(4-2-6)15(19)20/h1-4,8-10,16-17H,5H2,(H,14,18)",WIIZWVCIJKGZOK-UHFFFAOYSA-N,OCC(NC(=O)C(Cl)Cl)C(O)C1=CC=C(C=C1)[N+]([O-])=O,-2.92,0.405,2,G3
C-596,phenazine;  dibenzopyrazine,InChI=1S/C12H8N2/c1-2-6-10-9(5-1)13-11-7-3-4-8-12(11)14-10/h1-8H,PCNDJXKNXGMECE-UHFFFAOYSA-N,C1=CC2=C(C=C1)N=C3C=CC=CC3=N2,-3.7,0.0,1,G1
C-597,isopropyl 1-(4-tolylsulfonyl)cyclopropane-1-carboxylate; 1-(4-methylphenylsulfonyl)cyclopropanecarboxylic acid isopropyl ester,"InChI=1S/C14H18O4S/c1-10(2)18-13(15)14(8-9-14)19(16,17)12-6-4-11(3)5-7-12/h4-7,10H,8-9H2,1-3H3",RHDLXXXPRNASTE-UHFFFAOYSA-N,CC(C)OC(=O)C1(CC1)[S](=O)(=O)C2=CC=C(C)C=C2,-3.23,0.0,1,G1
C-598,"2-cyclohexyl-4,6-dinitrophenol;  dinex","InChI=1S/C12H14N2O5/c15-12-10(8-4-2-1-3-5-8)6-9(13(16)17)7-11(12)14(18)19/h6-8,15H,1-5H2",QJYHUJAGJUHXJN-UHFFFAOYSA-N,OC1=C(C=C(C=C1[N+]([O-])=O)[N+]([O-])=O)C2CCCCC2,-4.25,0.0,1,G1
C-599,"2,6-dichlorodiphenyl  ether",InChI=1S/C12H8Cl2O/c13-10-7-4-8-11(14)12(10)15-9-5-2-1-3-6-9/h1-8H,IRLZOQDGEAEIPX-UHFFFAOYSA-N,ClC1=C(OC2=CC=CC=C2)C(=CC=C1)Cl,-5.06,0.0,1,G1
C-600,"thidiazuron; 1-(1,2,3-thiadiazol-5-yl)-3-phenylurea","InChI=1S/C9H8N4OS/c14-9(12-8-6-10-13-15-8)11-7-4-2-1-3-5-7/h1-6H,(H2,11,12,14)",HFCYZXMHUIHAQI-UHFFFAOYSA-N,O=C(NC1=CN=NS1)NC2=CC=CC=C2,-3.85,0.09594999999999998,2,G3
C-602,"1,10-phenanthroline",InChI=1S/C12H8N2/c1-3-9-5-6-10-4-2-8-14-12(10)11(9)13-7-1/h1-8H,DGEZNRSVGBDHLK-UHFFFAOYSA-N,C1=CC2=CC=C3C=CC=NC3=C2N=C1,-1.83,0.10499999999999998,2,G3
C-603,ethyl 1-(4-tolylsulfonyl)cyclobutane-1-carboxylate; 1-(4-methylphenylsulfonyl)cyclobutanecarboxylic acid ethyl ester,"InChI=1S/C14H18O4S/c1-3-18-13(15)14(9-4-10-14)19(16,17)12-7-5-11(2)6-8-12/h5-8H,3-4,9-10H2,1-2H3",CTCKUDTVPBDAHJ-UHFFFAOYSA-N,CCOC(=O)C1(CCC1)[S](=O)(=O)C2=CC=C(C)C=C2,-2.96,0.0,1,G1
C-604,tolbutamide,"InChI=1S/C12H18N2O3S/c1-3-4-9-13-12(15)14-18(16,17)11-7-5-10(2)6-8-11/h5-8H,3-4,9H2,1-2H3,(H2,13,14,15)",JLRGJRBPOGGCBT-UHFFFAOYSA-N,CCCCNC(=O)N[S](=O)(=O)C1=CC=C(C)C=C1,-3.17,0.1100000000000001,2,G3
C-605,cyprodinil;  4-cyclopropyl-6-methyl-2-phenylaminopyrimidine,"InChI=1S/C14H15N3/c1-10-9-13(11-7-8-11)17-14(15-10)16-12-5-3-2-4-6-12/h2-6,9,11H,7-8H2,1H3,(H,15,16,17)",HAORKNGNJCEJBX-UHFFFAOYSA-N,CC1=NC(=NC(=C1)C2CC2)NC3=CC=CC=C3,-4.05,0.09440000000000026,2,G3
C-606,methyl 1-(phenylsulfonyl)cyclohexane-1-carboxylate; 1-(phenylsulfonyl)cyclohexanecarboxylic acid methyl ester,"InChI=1S/C14H18O4S/c1-18-13(15)14(10-6-3-7-11-14)19(16,17)12-8-4-2-5-9-12/h2,4-5,8-9H,3,6-7,10-11H2,1H3",QKXWKAIGVBVCPM-UHFFFAOYSA-N,COC(=O)C1(CCCCC1)[S](=O)(=O)C2=CC=CC=C2,-3.85,0.5001,2,G2
C-607,idoxuridine;  2'-deoxy-5-iodouridine,"InChI=1S/C9H11IN2O5/c10-4-2-12(9(16)11-8(4)15)7-1-5(14)6(3-13)17-7/h2,5-7,13-14H,1,3H2,(H,11,15,16)",XQFRJNBWHJMXHO-UHFFFAOYSA-N,OCC1OC(CC1O)N2C=C(I)C(=O)NC2=O,-2.25,0.0,1,G1
C-608,"fenpiclonil;  3-cyano-4-(2,3-dichlorophenyl)pyrrole","InChI=1S/C11H6Cl2N2/c12-10-3-1-2-8(11(10)13)9-6-15-5-7(9)4-14/h1-3,5-6,15H",FKLFBQCQQYDUAM-UHFFFAOYSA-N,ClC1=C(Cl)C(=CC=C1)C2=C[NH]C=C2C#N,-4.69,0.0,1,G1
C-609,hydrocortisone  acetate,"InChI=1S/C23H32O6/c1-13(24)29-12-19(27)23(28)9-7-17-16-5-4-14-10-15(25)6-8-21(14,2)20(16)18(26)11-22(17,23)3/h10,16-18,20,26,28H,4-9,11-12H2,1-3H3",ALEXXDVDDISNDU-UHFFFAOYSA-N,CC(=O)OCC(=O)C1(O)CCC2C3CCC4=CC(=O)CCC4(C)C3C(O)CC12C,-4.61,0.1349999999999998,2,G3
C-610,etomidate;  (r)-(+)-1-(alpha-methylbenzyl)imidazole-5-carboxylic acid ethyl ester,"InChI=1S/C14H16N2O2/c1-3-18-14(17)13-9-15-10-16(13)11(2)12-7-5-4-6-8-12/h4-11H,3H2,1-2H3",NPUKDXXFDDZOKR-UHFFFAOYSA-N,CCOC(=O)C1=CN=C[N]1C(C)C2=CC=CC=C2,-4.73,0.0,1,G1
C-611,naproxen,"InChI=1S/C14H14O3/c1-9(14(15)16)10-3-4-12-8-13(17-2)6-5-11(12)7-10/h3-9H,1-2H3,(H,15,16)",CMWTZPSULFXXJA-UHFFFAOYSA-N,COC1=CC=C2C=C(C=CC2=C1)C(C)C(O)=O,-3.29,0.43500000000000005,2,G3
C-612,danazol,"InChI=1S/C22H27NO2/c1-4-22(24)10-8-18-16-6-5-15-11-19-14(13-23-25-19)12-20(15,2)17(16)7-9-21(18,22)3/h1,11,13,16-18,24H,5-10,12H2,2-3H3",POZRVZJJTULAOH-UHFFFAOYSA-N,CC12CC3=C(ON=C3)C=C1CCC4C2CCC5(C)C4CCC5(O)C#C,-5.51,0.0,1,G1
C-613,1-(4-chlorophenylsulfonyl)cyclobutanecarboxylic acid methyl ester,"InChI=1S/C12H13ClO4S/c1-17-11(14)12(7-2-8-12)18(15,16)10-5-3-9(13)4-6-10/h3-6H,2,7-8H2,1H3",GWBJAJHNRFKJON-UHFFFAOYSA-N,COC(=O)C1(CCC1)[S](=O)(=O)C2=CC=C(Cl)C=C2,-3.0,0.0,1,G1
C-617,ganciclovir,"InChI=1S/C9H13N5O4/c10-9-12-7-6(8(17)13-9)11-3-14(7)4-18-5(1-15)2-16/h3,5,15-16H,1-2,4H2,(H3,10,12,13,17)",IRSCQMHQWWYFCW-UHFFFAOYSA-N,NC1=NC2=C(N=C[N]2COC(CO)CO)C(=O)N1,-1.77,0.0,1,G1
C-618,"2,3-dimethyl-2,3-dihydro-1h-imidazo[5,1b]quinazolin-9-one; 2,3-dimethylimidazoquinazolone","InChI=1S/C12H13N3O/c1-8-11-13-10-6-4-3-5-9(10)12(16)15(11)7-14(8)2/h3-6,8H,7H2,1-2H3",GYHGUZNRWIIXIG-UHFFFAOYSA-N,CC1N(C)CN2C(=O)C3=C(C=CC=C3)N=C12,0.03,0.0,1,G1
C-619,"2,4,4'-trichlorobiphenyl",InChI=1S/C12H7Cl3/c13-9-3-1-8(2-4-9)11-6-5-10(14)7-12(11)15/h1-7H,BZTYNSQSZHARAZ-UHFFFAOYSA-N,ClC1=CC=C(C=C1)C2=C(Cl)C=C(Cl)C=C2,-6.0,0.10429765098025934,3,G5
C-621,isopropyl  2-(4-chlorophenylsulfonyl)acetate; 2-(4-chlorophenylsulfonyl)acetic acid isopropyl ester,"InChI=1S/C11H13ClO4S/c1-8(2)16-11(13)7-17(14,15)10-5-3-9(12)4-6-10/h3-6,8H,7H2,1-2H3",DBCUYSCFFFBUJG-UHFFFAOYSA-N,CC(C)OC(=O)C[S](=O)(=O)C1=CC=C(Cl)C=C1,-2.41,0.0,1,G1
C-624,zidovudine,"InChI=1S/C10H13N5O4/c1-5-3-15(10(18)12-9(5)17)8-2-6(13-14-11)7(4-16)19-8/h3,6-8,16H,2,4H2,1H3,(H,12,17,18)",HBOMLICNUCNMMY-UHFFFAOYSA-N,CC1=CN(C2CC(N=[N+]=[N-])C(CO)O2)C(=O)NC1=O,-1.16,0.0,1,G1
C-626,1-(4-methylphenylsulfonyl)cyclobutanecarboxylic acid isopropyl ester,"InChI=1S/C15H20O4S/c1-11(2)19-14(16)15(9-4-10-15)20(17,18)13-7-5-12(3)6-8-13/h5-8,11H,4,9-10H2,1-3H3",HMGCFJCNDADXNC-UHFFFAOYSA-N,CC(C)OC(=O)C1(CCC1)[S](=O)(=O)C2=CC=C(C)C=C2,-3.34,0.0,1,G1
C-628,"1,3,5,7-tetrachloronaphthalene",InChI=1S/C10H4Cl4/c11-5-1-7-8(10(14)3-5)2-6(12)4-9(7)13/h1-4H,OTTCXKPQKOLSJN-UHFFFAOYSA-N,ClC1=CC2=C(C=C(Cl)C=C2Cl)C(=C1)Cl,-7.82,0.0,1,G1
C-632,dibenzothiophene,InChI=1S/C12H8S/c1-3-7-11-9(5-1)10-6-2-4-8-12(10)13-11/h1-8H,IYYZUPMFVPLQIF-UHFFFAOYSA-N,S1C2=C(C=CC=C2)C3=C1C=CC=C3,-5.1,0.3680881536926839,3,G5
C-633,"5-(1-aziridinyl)-2,4-dinitrobenzamide","InChI=1S/C9H8N4O5/c10-9(14)5-3-7(11-1-2-11)8(13(17)18)4-6(5)12(15)16/h3-4H,1-2H2,(H2,10,14)",WOCXQMCIOTUMJV-UHFFFAOYSA-N,NC(=O)C1=CC(=C(C=C1[N+]([O-])=O)[N+]([O-])=O)N2CC2,-2.3,0.0,1,G1
C-634,1-(4-chlorophenylsulfonyl)cyclopropanecarboxylic acid isopropyl ester,"InChI=1S/C13H15ClO4S/c1-9(2)18-12(15)13(7-8-13)19(16,17)11-5-3-10(14)4-6-11/h3-6,9H,7-8H2,1-2H3",SAFRSRKBLQVPQW-UHFFFAOYSA-N,CC(C)OC(=O)C1(CC1)[S](=O)(=O)C2=CC=C(Cl)C=C2,-3.54,0.0,1,G1
C-636,"1,2,3,5-tetrachloronaphthalene",InChI=1S/C10H4Cl4/c11-7-3-1-2-5-6(7)4-8(12)10(14)9(5)13/h1-4H,HJJKSUVYCQAMBG-UHFFFAOYSA-N,ClC1=CC=CC2=C1C=C(Cl)C(=C2Cl)Cl,-7.86,0.0,1,G1
C-638,methyl 2-(4-bromobenzenesulfonyl)acetate;  2-(4-bromobenzenesulfonyl)acetic acid methyl ester,"InChI=1S/C9H9BrO4S/c1-14-9(11)6-15(12,13)8-4-2-7(10)3-5-8/h2-5H,6H2,1H3",CNEVNTZDQZVZGP-UHFFFAOYSA-N,COC(=O)C[S](=O)(=O)C1=CC=C(Br)C=C1,-2.48,0.0,1,G1
C-639,"2,3,4-trichlorobiphenyl",InChI=1S/C12H7Cl3/c13-10-7-6-9(11(14)12(10)15)8-4-2-1-3-5-8/h1-7H,IUYHQGMDSZOPDZ-UHFFFAOYSA-N,ClC1=C(Cl)C(=C(C=C1)C2=CC=CC=C2)Cl,-6.18,0.0,1,G1
C-640,"1,2,3,4-tetrachloronaphthalene",InChI=1S/C10H4Cl4/c11-7-5-3-1-2-4-6(5)8(12)10(14)9(7)13/h1-4H,NAQWICRLNQSPPW-UHFFFAOYSA-N,ClC1=C(Cl)C2=C(C=CC=C2)C(=C1Cl)Cl,-7.8,0.0,1,G1
C-641,"2,4,6-trichlorobiphenyl",InChI=1S/C12H7Cl3/c13-9-6-10(14)12(11(15)7-9)8-4-2-1-3-5-8/h1-7H,MTLMVEWEYZFYTH-UHFFFAOYSA-N,ClC1=CC(=C(C(=C1)Cl)C2=CC=CC=C2)Cl,-6.06,0.05391557185905477,3,G5
C-643,"4-hydroxy-5,6-dihydro-4h-2-sulfamoylthieno[2,3-b]thiopyran","InChI=1S/C7H9NO3S3/c8-14(10,11)6-3-4-5(9)1-2-12-7(4)13-6/h3,5,9H,1-2H2,(H2,8,10,11)",QUBSMEXIPLOOMC-UHFFFAOYSA-N,N[S](=O)(=O)C1=CC2=C(SCCC2O)S1,-2.59,0.0,1,G1
C-644,1-(4-methylphenylsulfonyl)cyclohexanecarboxylic acid methyl ester,"InChI=1S/C15H20O4S/c1-12-6-8-13(9-7-12)20(17,18)15(14(16)19-2)10-4-3-5-11-15/h6-9H,3-5,10-11H2,1-2H3",XBQBUJRJLAOQHD-UHFFFAOYSA-N,COC(=O)C1(CCCCC1)[S](=O)(=O)C2=CC=C(C)C=C2,-4.61,0.0,1,G1
C-645,methazolamide,"InChI=1S/C5H8N4O3S2/c1-3(10)7-4-9(2)8-5(13-4)14(6,11)12/h1-2H3,(H2,6,11,12)",FLOSMHQXBMRNHR-UHFFFAOYSA-N,CN1N=C(SC1=NC(C)=O)[S](N)(=O)=O,-1.92,0.04499999999999993,2,G3
C-646,codeine;  methylmorphine,"InChI=1S/C18H21NO3/c1-19-8-7-18-11-4-5-13(20)17(18)22-16-14(21-2)6-3-10(15(16)18)9-12(11)19/h3-6,11-13,17,20H,7-9H2,1-2H3",OROGSEYTTFOCAN-UHFFFAOYSA-N,COC1=C2OC3C(O)C=CC4C5CC(=C2C34CCN5C)C=C1,-2.15,0.31499999999999995,2,G3
C-647,methyl  1-(4-bromophenylsulfonyl)cyclopropane-1-carboxylate; 1-(4-bromophenylsulfonyl)cyclopropanecarboxylic acid methyl ester,"InChI=1S/C11H11BrO4S/c1-16-10(13)11(6-7-11)17(14,15)9-4-2-8(12)3-5-9/h2-5H,6-7H2,1H3",IPABBDLXSJIQEG-UHFFFAOYSA-N,COC(=O)C1(CC1)[S](=O)(=O)C2=CC=C(Br)C=C2,-3.67,0.0,1,G1
C-651,buprofezin,"InChI=1S/C16H23N3OS/c1-12(2)19-14(17-16(3,4)5)21-11-18(15(19)20)13-9-7-6-8-10-13/h6-10,12H,11H2,1-5H3",PRLVTUNWOQKEAI-UHFFFAOYSA-N,CC(C)N1C(=O)N(CSC1=NC(C)(C)C)C2=CC=CC=C2,-5.53,0.0,1,G1
C-652,"2,2',6-trichlorobiphenyl",InChI=1S/C12H7Cl3/c13-9-5-2-1-4-8(9)12-10(14)6-3-7-11(12)15/h1-7H,MVXIJRBBCDLNLX-UHFFFAOYSA-N,ClC1=CC=CC=C1C2=C(Cl)C=CC=C2Cl,-5.9,0.0,1,G1
C-653,nitrofurantoin,"InChI=1S/C8H6N4O5/c13-6-4-11(8(14)10-6)9-3-5-1-2-7(17-5)12(15)16/h1-3H,4H2,(H,10,13,14)/b9-3+",NXFQHRVNIOXGAQ-YCRREMRBSA-N,[O-][N+](=O)C1=CC=C(O1)\C=N\N2CC(=O)NC2=O,-3.38,0.09709359745455237,3,G5
C-658,mirex,"InChI=1S/C10Cl12/c11-1-2(12)7(17)4(14)3(13,5(1,15)9(7,19)20)6(1,16)10(21,22)8(2,4)18",GVYLCNUFSHDAAW-UHFFFAOYSA-N,ClC1(Cl)C2(Cl)C3(Cl)C4(Cl)C(Cl)(Cl)C5(Cl)C3(Cl)C1(Cl)C5(Cl)C24Cl,-6.8,0.0,1,G1
C-660,"butralin;  dibutalin;  n-sec-butyl-4-tert-butyl-2,6-dinitroaniline","InChI=1S/C14H21N3O4/c1-6-9(2)15-13-11(16(18)19)7-10(14(3,4)5)8-12(13)17(20)21/h7-9,15H,6H2,1-5H3",SPNQRCTZKIBOAX-UHFFFAOYSA-N,CCC(C)NC1=C(C=C(C=C1[N+]([O-])=O)C(C)(C)C)[N+]([O-])=O,-5.47,0.0,1,G1
C-661,pelrinone,"InChI=1S/C12H11N5O/c1-8-16-11(10(5-13)12(18)17-8)15-7-9-3-2-4-14-6-9/h2-4,6H,7H2,1H3,(H2,15,16,17,18)",NZXHFDXOCVIYLO-UHFFFAOYSA-N,CC1=NC(=O)C(=C(NCC2=CN=CC=C2)N1)C#N,-2.35,0.0,1,G1
C-663,"2,4,4'-trichlorodiphenyl  ether",InChI=1S/C12H7Cl3O/c13-8-1-4-10(5-2-8)16-12-6-3-9(14)7-11(12)15/h1-7H,PIORTDHJOLELKR-UHFFFAOYSA-N,ClC1=CC=C(OC2=C(Cl)C=C(Cl)C=C2)C=C1,-6.22,0.0,1,G1
C-664,tert-butyl 1-(4-chlorophenylsulfonyl)cyclopropane-1-carboxylate; 1-(4-chlorophenylsulfonyl)cyclopropanecarboxylic acid tert-butyl ester,"InChI=1S/C14H17ClO4S/c1-13(2,3)19-12(16)14(8-9-14)20(17,18)11-6-4-10(15)5-7-11/h4-7H,8-9H2,1-3H3",GMJAXKKUTHHHMD-UHFFFAOYSA-N,CC(C)(C)OC(=O)C1(CC1)[S](=O)(=O)C2=CC=C(Cl)C=C2,-4.12,0.0,1,G1
C-665,adenosine,"InChI=1S/C10H13N5O4/c11-8-5-9(13-2-12-8)15(3-14-5)10-7(18)6(17)4(1-16)19-10/h2-4,6-7,10,16-18H,1H2,(H2,11,12,13)",OIRDTQYFTABQOQ-UHFFFAOYSA-N,NC1=NC=NC2=C1N=C[N]2C3OC(CO)C(O)C3O,-1.73,0.0,1,G1
C-666,flurbiprofen,"InChI=1S/C15H13FO2/c1-10(15(17)18)12-7-8-13(14(16)9-12)11-5-3-2-4-6-11/h2-10H,1H3,(H,17,18)",SYTBZMRGLBWNTM-UHFFFAOYSA-N,CC(C(O)=O)C1=CC=C(C(=C1)F)C2=CC=CC=C2,-4.29,0.13952299690970896,3,G5
C-667,praziquantel,"InChI=1S/C19H24N2O2/c22-18-13-20(19(23)15-7-2-1-3-8-15)12-17-16-9-5-4-6-14(16)10-11-21(17)18/h4-6,9,15,17H,1-3,7-8,10-13H2",FSVJFNAIGNNGKK-UHFFFAOYSA-N,O=C1CN(CC2N1CCC3=C2C=CC=C3)C(=O)C4CCCCC4,-2.89,0.0,1,G1
C-669,crufomate; ruelene,"InChI=1S/C12H19ClNO3P/c1-12(2,3)9-6-7-11(10(13)8-9)17-18(15,14-4)16-5/h6-8H,1-5H3,(H,14,15)",BOFHKBLZOYVHSI-UHFFFAOYSA-N,CN[P](=O)(OC)OC1=CC=C(C=C1Cl)C(C)(C)C,-3.16,0.0,1,G1
C-670,1-(4-methylphenylsulfonyl)cyclopentanecarboxylic acid isopropyl ester,"InChI=1S/C16H22O4S/c1-12(2)20-15(17)16(10-4-5-11-16)21(18,19)14-8-6-13(3)7-9-14/h6-9,12H,4-5,10-11H2,1-3H3",ZJFXBQVTEYWQHW-UHFFFAOYSA-N,CC(C)OC(=O)C1(CCCC1)[S](=O)(=O)C2=CC=C(C)C=C2,-3.91,0.0,1,G1
C-674,"3-aziridin-1-yl-4,6-dinitro-(n-methyl)benzamide","InChI=1S/C10H10N4O5/c1-11-10(15)6-4-8(12-2-3-12)9(14(18)19)5-7(6)13(16)17/h4-5H,2-3H2,1H3,(H,11,15)",KNLCLQCILLJWHK-UHFFFAOYSA-N,CNC(=O)C1=CC(=C(C=C1[N+]([O-])=O)[N+]([O-])=O)N2CC2,-2.85,0.0,1,G1
C-676,triamcinolone  acetonide,"InChI=1S/C24H31FO6/c1-20(2)30-19-10-16-15-6-5-13-9-14(27)7-8-21(13,3)23(15,25)17(28)11-22(16,4)24(19,31-20)18(29)12-26/h7-9,15-17,19,26,28H,5-6,10-12H2,1-4H3",YNDXUCZADRHECN-UHFFFAOYSA-N,CC1(C)OC2CC3C4CCC5=CC(=O)C=CC5(C)C4(F)C(O)CC3(C)C2(O1)C(=O)CO,-4.31,0.2993697082575693,3,G5
C-678,1-(4-bromophenylsulfonyl)cyclobutanecarboxylic acid methyl ester,"InChI=1S/C12H13BrO4S/c1-17-11(14)12(7-2-8-12)18(15,16)10-5-3-9(13)4-6-10/h3-6H,2,7-8H2,1H3",DXGXTGYXCFBYDJ-UHFFFAOYSA-N,COC(=O)C1(CCC1)[S](=O)(=O)C2=CC=C(Br)C=C2,-3.55,0.0,1,G1
C-680,"3,3'-dimethoxybenzidine;  4,4'-diamino-3,3'-dimethoxybiphenyl","InChI=1S/C14H16N2O2/c1-17-13-7-9(3-5-11(13)15)10-4-6-12(16)14(8-10)18-2/h3-8H,15-16H2,1-2H3",JRBJSXQPQWSCCF-UHFFFAOYSA-N,COC1=CC(=CC=C1N)C2=CC(=C(N)C=C2)OC,-3.61,0.0,1,G1
C-681,thiodicarb,"InChI=1S/C10H18N4O4S3/c1-7(19-5)11-17-9(15)13(3)21-14(4)10(16)18-12-8(2)20-6/h1-6H3/b11-7+,12-8+",XDOTVMNBCQVZKG-MKICQXMISA-N,CSC(/C)=N/OC(=O)N(C)SN(C)C(=O)O\N=C(/C)SC,-4.01,0.12950000000000017,2,G3
C-682,albendazole,"InChI=1S/C12H15N3O2S/c1-3-6-18-8-4-5-9-10(7-8)14-11(13-9)15-12(16)17-2/h4-5,7H,3,6H2,1-2H3,(H2,13,14,15,16)",HXHWSAZORRCQMX-UHFFFAOYSA-N,CCCSC1=CC2=C([NH]C(=N2)NC(=O)OC)C=C1,-4.22,0.0,1,G1
C-683,penconazole,"InChI=1S/C13H15Cl2N3/c1-2-3-10(7-18-9-16-8-17-18)12-5-4-11(14)6-13(12)15/h4-6,8-10H,2-3,7H2,1H3",WKBPZYKAUNRMKP-UHFFFAOYSA-N,CCCC(C[N]1C=NC=N1)C2=C(Cl)C=C(Cl)C=C2,-3.59,0.0,1,G1
C-684,"3-methyl-2-propyl-2,3-dihydro-1h-imidazo[5,1b]quinazolin-9-one; 2-propyl-3-methylimidazoquinazolone","InChI=1S/C14H17N3O/c1-3-8-16-9-17-13(10(16)2)15-12-7-5-4-6-11(12)14(17)18/h4-7,10H,3,8-9H2,1-2H3",LTMRJPIOLKBUKZ-UHFFFAOYSA-N,CCCN1CN2C(=O)C3=C(C=CC=C3)N=C2C1C,-2.67,0.0,1,G1
C-685,myclobutanil,"InChI=1S/C15H17ClN4/c1-2-3-8-15(9-17,10-20-12-18-11-19-20)13-4-6-14(16)7-5-13/h4-7,11-12H,2-3,8,10H2,1H3",HZJKXKUJVSEEFU-UHFFFAOYSA-N,CCCCC(C[N]1C=NC=N1)(C#N)C2=CC=C(Cl)C=C2,-3.31,0.0,1,G1
C-687,hydromorphone;  dihydromorphinone,"InChI=1S/C17H19NO3/c1-18-7-6-17-10-3-5-13(20)16(17)21-15-12(19)4-2-9(14(15)17)8-11(10)18/h2,4,10-11,16,19H,3,5-8H2,1H3",WVLOADHCBXTIJK-UHFFFAOYSA-N,CN1CCC23C4CCC(=O)C2OC5=C(O)C=CC(=C35)CC14,-2.1,0.0,1,G1