ID,Name,InChI,InChIKey,SMILES,Solubility,SD,Occurrences,Group
E-872,d-Camphoric_Acid,"InChI=1S/C10H16O4/c1-9(2)6(7(11)12)4-5-10(9,3)8(13)14/h6H,4-5H2,1-3H3,(H,11,12)(H,13,14)",LSPHULWDVZXLIL-UHFFFAOYSA-N,O=C(O)C(C(C(C(=O)O)C1)(C)C)(C1)C,-1.42,0.17500000000000004,2,G3
E-873,Borneol,"InChI=1S/C10H18O/c1-9(2)7-4-5-10(9,3)8(11)6-7/h7-8,11H,4-6H2,1-3H3",DTGKSKDOIYIVQL-UHFFFAOYSA-N,OC(C(C(C1C2)(C)C)(C2)C)C1,-2.32,0.21500000000000008,2,G3
E-875,Linalool,"InChI=1S/C10H18O/c1-5-10(4,11)8-6-7-9(2)3/h5,7,11H,1,6,8H2,2-4H3",CDOSHBSSFJOMGT-UHFFFAOYSA-N,OC(C=C)(CCC=C(C)C)C,-1.99,0.0,1,G1
E-876,Menthol,"InChI=1S/C10H20O/c1-7(2)9-5-4-8(3)6-10(9)11/h7-11H,4-6H2,1-3H3",NOOLISFMXDJSKH-UHFFFAOYSA-N,OC(C(CCC1C)C(C)C)C1,-2.53,0.09081611916394587,4,G5
E-877,Menadione,"InChI=1S/C11H8O2/c1-7-6-10(12)8-4-2-3-5-9(8)11(7)13/h2-6H,1H3",MJVAVZPDRWSRRC-UHFFFAOYSA-N,c1cc2C(=O)C=C(C)C(=O)c2cc1,-3.03,0.020000000000000018,2,G3
E-878,Vasicinone,"InChI=1S/C11H12N2O2/c14-9-5-6-13-10(9)12-8-4-2-1-3-7(8)11(13)15/h1-4,9,11,14-15H,5-6H2",AKRGPMZFCFDFQW-UHFFFAOYSA-N,c1ccc2C(O)N3CCC(O)C3=Nc2c1,-2.07,0.0,1,G1
E-879,"2,7-Dimethylquinoline","InChI=1S/C11H11N/c1-8-3-5-10-6-4-9(2)12-11(10)7-8/h3-7H,1-2H3",QXKPLNCZSFACPU-UHFFFAOYSA-N,n(c(c(ccc1C)cc2)c1)c2C,-1.94,0.0,1,G1
E-882,Mefluidide,"InChI=1S/C11H13F3N2O3S/c1-6-4-7(2)10(5-9(6)15-8(3)17)16-20(18,19)11(12,13)14/h4-5,16H,1-3H3,(H,15,17)",OKIBNKKYNPBDRS-UHFFFAOYSA-N,Cc1cc(C)c(NC(=O)C)cc1NS(=O)(=O)C(F)(F)F,-3.24,0.0,1,G1
E-885,Sulfisoxazole,"InChI=1S/C11H13N3O3S/c1-7-8(2)13-17-11(7)14-18(15,16)10-5-3-9(12)4-6-10/h3-6,14H,12H2,1-2H3",NHUHCSRWZMLRLA-UHFFFAOYSA-N,O=S(=O)(Nc(onc1C)c1C)c(ccc(N)c2)c2,-2.91,0.19999999999999996,2,G3
E-886,Cytisine,"InChI=1S/C11H14N2O/c14-11-3-1-2-10-9-4-8(5-12-6-9)7-13(10)11/h1-3,8-9,12H,4-7H2",ANJTVLIZGCUXLD-UHFFFAOYSA-N,C1=CC(=O)N2CC(C3)CNCC3C2=C1,0.36,0.0,1,G1
E-887,Ethiofencarb,"InChI=1S/C11H15NO2S/c1-3-15-8-9-6-4-5-7-10(9)14-11(13)12-2/h4-7H,3,8H2,1-2H3,(H,12,13)",HEZNVIYQEUHLNI-UHFFFAOYSA-N,CCSCc1ccccc1OC(=O)NC,-2.09,0.0,1,G1
E-888,Formetanate,"InChI=1S/C11H15N3O2/c1-12-11(15)16-10-6-4-5-9(7-10)13-8-14(2)3/h4-8H,1-3H3,(H,12,15)",RMFNNCGOSPBBAD-UHFFFAOYSA-N,CNC(=O)Oc1cccc(N=CN(C)C)c1,-2.34,0.3949999999999999,2,G3
E-890,Aminocarb,"InChI=1S/C11H16N2O2/c1-8-7-9(15-11(14)12-2)5-6-10(8)13(3)4/h5-7H,1-4H3,(H,12,14)",IMIDOCRTMDIQIJ-UHFFFAOYSA-N,CNC(=O)Oc1ccc(N(C)C)c(C)c1,-2.36,0.0,1,G1
E-891,Dimetan,"InChI=1S/C11H17NO3/c1-11(2)6-8(13)5-9(7-11)15-10(14)12(3)4/h5H,6-7H2,1-4H3",ITEQSCBLCCNACE-UHFFFAOYSA-N,C1C(C)(C)CC(=O)C=C1OC(=O)N(C)C,-0.85,0.0,1,G1
E-892,Fensulfothion,"InChI=1S/C11H17O4PS2/c1-4-13-16(17,14-5-2)15-10-6-8-11(9-7-10)18(3)12/h6-9H,4-5H2,1-3H3",XDNBJTQLKCIJBV-UHFFFAOYSA-N,CCOP(=S)(OCC)Oc1ccc(cc1)S(C)=O,-2.3,0.05599999999999983,2,G3
E-893,Pirimicarb,InChI=1S/C11H18N4O2/c1-7-8(2)12-10(14(3)4)13-9(7)17-11(16)15(5)6/h1-6H3,YFGYUFNIOHWBOB-UHFFFAOYSA-N,CN(C)C(=O)Oc1nc(nc(C)c1C)N(C)C,-1.95,0.0,1,G1
E-894,Dimethirimol,"InChI=1S/C11H19N3O/c1-5-6-7-9-8(2)12-11(14(3)4)13-10(9)15/h5-7H2,1-4H3,(H,12,13,15)",CJHXCRMKMMBYJQ-UHFFFAOYSA-N,Cc1c(CCCC)c(O)nc(N(C)C)n1,-2.24,0.0,1,G1
E-895,Cycloate,"InChI=1S/C11H21NOS/c1-3-12(11(13)14-4-2)10-8-6-5-7-9-10/h10H,3-9H2,1-2H3",DFCAFRGABIXSDS-UHFFFAOYSA-N,CCSC(=O)N(CC)C1CCCCC1,-3.4,0.0,1,G1
E-896,Methyl_Caprate,"InChI=1S/C11H22O2/c1-3-4-5-6-7-8-9-10-11(12)13-2/h3-10H2,1-2H3",YRHYCMZPEVDGFQ-UHFFFAOYSA-N,O=C(OC)CCCCCCCCC,-4.63,0.03000000000000025,2,G3
E-897,Butylate,"InChI=1S/C11H23NOS/c1-6-14-11(13)12(7-9(2)3)8-10(4)5/h9-10H,6-8H2,1-5H3",BMTAFVWTTFSTOG-UHFFFAOYSA-N,O=C(N(CC(C)C)CC(C)C)SCC,-3.68,0.0,1,G1
E-898,11-Aminoundecanoic_Acid,"InChI=1S/C11H23NO2/c12-10-8-6-4-2-1-3-5-7-9-11(13)14/h1-10,12H2,(H,13,14)",GUOSQNAUYHMCRU-UHFFFAOYSA-N,O=C(O)CCCCCCCCCCN,-2.7,0.2142196225061249,3,G5
E-899,Triclosan,"InChI=1S/C12H7Cl3O2/c13-7-1-3-11(9(15)5-7)17-12-4-2-8(14)6-10(12)16/h1-6,16H",XEFQLINVKFYRCS-UHFFFAOYSA-N,O(c(c(O)cc(c1)Cl)c1)c(c(cc(c2)Cl)Cl)c2,-4.46,0.0,1,G1
E-900,Methoxsalen,"InChI=1S/C12H8O4/c1-14-12-10-8(4-5-15-10)6-7-2-3-9(13)16-11(7)12/h2-6H,1H3",QXKHYNVANLEOEG-UHFFFAOYSA-N,O=C1C=Cc2cc3ccoc3c(OC)c2O1,-3.66,0.0,1,G1
E-902,Diphenylnitrosamine,InChI=1S/C12H10N2O/c15-13-14(11-7-3-1-4-8-11)12-9-5-2-6-10-12/h1-10H,UBUCNCOMADRQHX-UHFFFAOYSA-N,O=NN(c(cccc1)c1)c(cccc2)c2,-3.75,0.0,1,G1
E-903,Fenfuram,"InChI=1S/C12H11NO2/c1-9-11(7-8-15-9)12(14)13-10-5-3-2-4-6-10/h2-8H,1H3,(H,13,14)",JFSPBVWPKOEZCB-UHFFFAOYSA-N,Cc1occc1C(=O)Nc2ccccc2,-3.3,0.0,1,G1
E-905,Buturon,"InChI=1S/C12H13ClN2O/c1-4-9(2)15(3)12(16)14-11-7-5-10(13)6-8-11/h1,5-9H,2-3H3,(H,14,16)",BYYMILHAKOURNM-UHFFFAOYSA-N,CC(C#C)N(C)C(=O)Nc1ccc(Cl)cc1,-3.9,0.0,1,G1
E-907,Carbetamide,"InChI=1S/C12H16N2O3/c1-3-13-11(15)9(2)17-12(16)14-10-7-5-4-6-8-10/h4-9H,3H2,1-2H3,(H,13,15)(H,14,16)",AMRQXHFXNZFDCH-UHFFFAOYSA-N,CCNC(=O)C(C)OC(=O)Nc1ccccc1,-1.83,0.0,1,G1
E-908,Glybuthiazole,"InChI=1S/C12H16N4O2S2/c1-12(2,3)10-14-15-11(19-10)16-20(17,18)9-6-4-8(13)5-7-9/h4-7H,13H2,1-3H3,(H,15,16)",DVQVBLBKEXITIK-UHFFFAOYSA-N,c1cc(N)ccc1S(=O)(=O)Nc2nnc(C(C)(C)C)s2,-3.74,0.0,1,G1
E-909,Isoamyl_Salicylate,"InChI=1S/C12H16O3/c1-9(2)7-8-15-12(14)10-5-3-4-6-11(10)13/h3-6,9,13H,7-8H2,1-2H3",PMGCQNGBLMMXEW-UHFFFAOYSA-N,O=C(OCCC(C)C)c(c(O)ccc1)c1,-3.16,0.0,1,G1
E-911,Tributylamine,"InChI=1S/C12H27N/c1-4-7-10-13(11-8-5-2)12-9-6-3/h4-12H2,1-3H3",IMFACGCPASFAPR-UHFFFAOYSA-N,N(CCCC)(CCCC)CCCC,-3.12,0.0,1,G1
E-913,Niflumic_Acid,"InChI=1S/C13H9F3N2O2/c14-13(15,16)8-3-1-4-9(7-8)18-11-10(12(19)20)5-2-6-17-11/h1-7H,(H,17,18)(H,19,20)",JZFPYUNJRRFVQU-UHFFFAOYSA-N,OC(=O)c1cccnc1Nc2cc(C(F)(F)F)ccc2,-4.17,0.36371539545211573,3,G5
E-914,Phenanthridine,InChI=1S/C13H9N/c1-2-6-11-10(5-1)9-14-13-8-4-3-7-12(11)13/h1-9H,RDOWQLZANAYVLL-UHFFFAOYSA-N,c1ccc2c(c1)cnc3ccccc23,-2.78,0.0,1,G1
E-915,Carbanilide,"InChI=1S/C13H12N2O/c16-13(14-11-7-3-1-4-8-11)15-12-9-5-2-6-10-12/h1-10H,(H2,14,15,16)",GWEHVDNNLFDJLR-UHFFFAOYSA-N,O=C(Nc(cccc1)c1)Nc(cccc2)c2,-3.15,0.0,1,G1
E-916,Pyracarbolid,"InChI=1S/C13H15NO2/c1-10-12(8-5-9-16-10)13(15)14-11-6-3-2-4-7-11/h2-4,6-7H,5,8-9H2,1H3,(H,14,15)",YPCALTGLHFLNGA-UHFFFAOYSA-N,CC1=C(CCCO1)C(=O)Nc2ccccc2,-2.56,0.0,1,G1
E-917,Pyrolan,"InChI=1S/C13H15N3O2/c1-10-9-12(18-13(17)15(2)3)16(14-10)11-7-5-4-6-8-11/h4-9H,1-3H3",GEDIWDLJKRKBFT-UHFFFAOYSA-N,CN(C)C(=O)Oc1cc(C)nn1c2ccccc2,-2.09,0.0,1,G1
E-918,Acetyl_Sulfisoxazole,"InChI=1S/C13H15N3O4S/c1-8-9(2)15-20-13(8)16(10(3)17)21(18,19)12-6-4-11(14)5-7-12/h4-7H,14H2,1-3H3",JFNWFXVFBDDWCX-UHFFFAOYSA-N,c1cc(N)ccc1S(=O)(=O)N(C(=O)C)c2onc(C)c2C,-3.59,0.0,1,G1
E-919,Medinoterb_Acetate,"InChI=1S/C13H16N2O6/c1-7-10(14(17)18)6-9(13(3,4)5)12(21-8(2)16)11(7)15(19)20/h6H,1-5H3",LWULXYSYLOIDQY-UHFFFAOYSA-N,CC(=O)Oc1c(N(=O)(=O))c(C)c(N(=O)(=O))cc1C(C)(C)C,-4.47,0.0,1,G1
E-920,Ethofumesate,"InChI=1S/C13H18O5S/c1-5-16-12-13(2,3)10-8-9(18-19(4,14)15)6-7-11(10)17-12/h6-8,12H,5H2,1-4H3",IRCMYGHHKLLGHV-UHFFFAOYSA-N,CCOC2Oc1ccc(OS(C)(=O)=O)cc1C2(C)C,-3.42,0.16894999999999993,2,G3
E-921,Ibuproxam,"InChI=1S/C13H19NO2/c1-9(2)8-11-4-6-12(7-5-11)10(3)13(15)14-16/h4-7,9-10,16H,8H2,1-3H3,(H,14,15)",BYPIURIATSUHDW-UHFFFAOYSA-N,c1cc(CC(C)C)ccc1C(C)C(=O)NO,-3.04,0.0,1,G1
E-922,Salbutamol,"InChI=1S/C13H21NO3/c1-13(2,3)14-7-12(17)9-4-5-11(16)10(6-9)8-15/h4-6,12,14-17H,7-8H2,1-3H3",NDAUXUAQIAJITI-UHFFFAOYSA-N,c1c(CO)c(O)ccc1C(O)CNC(C)(C)C,-1.22,0.0,1,G1
E-923,Methyl_Laurate,"InChI=1S/C13H26O2/c1-3-4-5-6-7-8-9-10-11-12-13(14)15-2/h3-12H2,1-2H3",UQDUPQYQJKYHQI-UHFFFAOYSA-N,O=C(OC)CCCCCCCCCCC,-4.69,0.0,1,G1
E-924,"o,p'-DDE",InChI=1S/C14H8Cl4/c15-10-7-5-9(6-8-10)13(14(17)18)11-3-1-2-4-12(11)16/h1-8H,ZDYJWDIWLRZXDB-UHFFFAOYSA-N,ClC(=C(c1ccccc1Cl)c2ccc(cc2)Cl)Cl,-6.36,0.0,1,G1
E-925,Alizarin,"InChI=1S/C14H8O4/c15-10-6-5-9-11(14(10)18)13(17)8-4-2-1-3-7(8)12(9)16/h1-6,15,18H",RGCKGOZRHPZPFP-UHFFFAOYSA-N,O=C(c(c(C(=O)c1c(O)c(O)cc2)ccc3)c3)c12,-2.78,1.41,2,G2
E-926,Difluron,"InChI=1S/C14H9ClF2N2O2/c15-8-4-6-9(7-5-8)18-14(21)19-13(20)12-10(16)2-1-3-11(12)17/h1-7H,(H2,18,19,20,21)",QQQYTWIFVNKMRW-UHFFFAOYSA-N,O=C(NC(=O)c(c(F)ccc1)c1F)Nc(ccc(c2)Cl)c2,-6.02,0.28500000000000014,2,G3
E-927,"2-Phenyl-3,1-benzoxazin-4-one",InChI=1S/C14H9NO2/c16-13-11-8-4-5-9-12(11)17-14(15-13)10-6-2-1-3-7-10/h1-9H,GWDYJKXSUSPLEA-UHFFFAOYSA-N,c1ccc2C(=O)N=C(c3ccccc3)Oc2c1,-4.61,0.0,1,G1
E-928,"o,p'-DDD","InChI=1S/C14H10Cl4/c15-10-7-5-9(6-8-10)13(14(17)18)11-3-1-2-4-12(11)16/h1-8,13-14H",JWBOIMRXGHLCPP-UHFFFAOYSA-N,ClC(Cl)C(c1ccc(Cl)cc1)c2ccccc2Cl,-6.51,0.0,1,G1
E-930,1-Anthranol,"InChI=1S/C14H10O/c15-14-12-7-3-1-5-10(12)9-11-6-2-4-8-13(11)14/h1-9,15H",AUKRYONWZHRJRE-UHFFFAOYSA-N,c1ccc2cc3ccccc3c(O)c2c1,-4.73,0.0,1,G1
E-931,Gentisin,"InChI=1S/C14H10O5/c1-18-8-5-10(16)13-12(6-8)19-11-3-2-7(15)4-9(11)14(13)17/h2-6,15-16H,1H3",XOXYHGOIRWABTC-UHFFFAOYSA-N,Oc1ccc2Oc3cc(OC)cc(O)c3C(=O)c2c1,-2.93,0.0,1,G1
E-932,Dibenzamid,"InChI=1S/C14H11NO2/c16-13(11-7-3-1-4-8-11)15-14(17)12-9-5-2-6-10-12/h1-10H,(H,15,16,17)",ZHDORMMHAKXTPT-UHFFFAOYSA-N,c1ccccc1C(=O)NC(=O)c2ccccc2,-2.27,0.0,1,G1
E-933,Perfluidone,"InChI=1S/C14H12F3NO4S2/c1-10-9-12(23(19,20)11-5-3-2-4-6-11)7-8-13(10)18-24(21,22)14(15,16)17/h2-9,18H,1H3",WHTBVLXUSXVMEV-UHFFFAOYSA-N,Cc1cc(ccc1NS(=O)(=O)C(F)(F)F)S(=O)(=O)c2ccccc2,-3.8,0.0,1,G1
E-934,2-(4-Aminophenyl)-6-methyl-benzothiazole,"InChI=1S/C14H12N2S/c1-9-2-7-12-13(8-9)17-14(16-12)10-3-5-11(15)6-4-10/h2-8H,15H2,1H3",XRTJYEIMLZALBD-UHFFFAOYSA-N,N(c(c(S1)cc(c2)C)c2)=C1c(ccc(N)c3)c3,-3.68,0.0,1,G1
E-936,"4,7-Dimethyl-1,10-phenanthroline","InChI=1S/C14H12N2/c1-9-5-7-15-13-11(9)3-4-12-10(2)6-8-16-14(12)13/h3-8H,1-2H3",JIVLDFFWTQYGSR-UHFFFAOYSA-N,n(c(c(c(c1)C)ccc2c(ccn3)C)c23)c1,-3.97,0.0,1,G1
E-937,"DL-1,2-Diphenylethanol","InChI=1S/C14H14O/c15-14(13-9-5-2-6-10-13)11-12-7-3-1-4-8-12/h1-10,14-15H,11H2",GBGXVCNOKWAMIP-UHFFFAOYSA-N,OC(c(cccc1)c1)Cc(cccc2)c2,-2.52,0.0,1,G1
E-938,Hydrobenzoin,"InChI=1S/C14H14O2/c15-13(11-7-3-1-4-8-11)14(16)12-9-5-2-6-10-12/h1-10,13-16H",IHPDTPWNFBQHEB-UHFFFAOYSA-N,c1ccccc1C(O)C(O)c2ccccc2,-1.93,0.0,1,G1
E-939,Coumaphos,"InChI=1S/C14H16ClO5PS/c1-4-17-21(22,18-5-2)20-10-6-7-11-9(3)13(15)14(16)19-12(11)8-10/h6-8H,4-5H2,1-3H3",BXNANOICGRISHX-UHFFFAOYSA-N,S=P(OCC)(OCC)Oc1ccc2C(C)=C(Cl)C(=O)Oc2c1,-5.38,0.0,1,G1
E-942,Anisomycin,"InChI=1S/C14H19NO4/c1-9(16)19-14-12(15-8-13(14)17)7-10-3-5-11(18-2)6-4-10/h3-6,12-15,17H,7-8H2,1-2H3",YKJYKKNCCRKFSL-UHFFFAOYSA-N,COc2ccc(CC1NCC(O)C1OC(C)=O)cc2,-1.61,0.0,1,G1
E-943,Siduron,"InChI=1S/C14H20N2O/c1-11-7-5-6-10-13(11)16-14(17)15-12-8-3-2-4-9-12/h2-4,8-9,11,13H,5-7,10H2,1H3,(H2,15,16,17)",JXVIIQLNUPXOII-UHFFFAOYSA-N,CC1CCCCC1NC(=O)Nc2ccccc2,-4.11,0.0,1,G1
E-945,Bensulide,"InChI=1S/C14H24NO4PS3/c1-12(2)18-20(21,19-13(3)4)22-11-10-15-23(16,17)14-8-6-5-7-9-14/h5-9,12-13,15H,10-11H2,1-4H3",RRNIZKPFKNDSRS-UHFFFAOYSA-N,CC(C)OP(=S)(OC(C)C)SCCNS(=O)(=O)c1ccccc1,-4.2,0.0,1,G1
E-946,Myristyl_Alcohol,"InChI=1S/C14H30O/c1-2-3-4-5-6-7-8-9-10-11-12-13-14-15/h15H,2-14H2,1H3",HLZKNKRTKFSKGZ-UHFFFAOYSA-N,C(O)CCCCCCCCCCCCC,-6.05,0.1382633357040108,4,G5
E-948,Liothyronine,"InChI=1S/C15H12I3NO4/c16-9-6-8(1-2-13(9)20)23-14-10(17)3-7(4-11(14)18)5-12(19)15(21)22/h1-4,6,12,20H,5,19H2,(H,21,22)",AUYYCJSJGJYCDS-UHFFFAOYSA-N,NC(Cc2cc(I)c(Oc1ccc(O)c(I)c1)c(I)c2)C(O)=O,-5.22,0.0,1,G1
E-949,Metiazinic_Acid,"InChI=1S/C15H13NO2S/c1-16-11-4-2-3-5-13(11)19-14-7-6-10(8-12(14)16)9-15(17)18/h2-8H,9H2,1H3,(H,17,18)",LMINNBXUMGNKMM-UHFFFAOYSA-N,c1ccc2Sc3ccc(CC(=O)O)cc3N(C)c2c1,-3.94,0.0,1,G1
E-953,Ancymidol,"InChI=1S/C15H16N2O2/c1-19-14-6-4-12(5-7-14)15(18,11-2-3-11)13-8-16-10-17-9-13/h4-11,18H,2-3H2,1H3",HUTDUHSNJYTCAR-UHFFFAOYSA-N,COc1ccc(cc1)C(O)(C2CC2)c3cncnc3,-2.6,0.0,1,G1
E-954,Osthole,"InChI=1S/C15H16O3/c1-10(2)4-7-12-13(17-3)8-5-11-6-9-14(16)18-15(11)12/h4-6,8-9H,7H2,1-3H3",MBRLOUHOWLUMFF-UHFFFAOYSA-N,COc1ccc2C=CC(=O)Oc2c1CC=C(C)C,-4.31,0.0,1,G1
E-955,Santonin,"InChI=1S/C15H18O3/c1-8-10-4-6-15(3)7-5-11(16)9(2)12(15)13(10)18-14(8)17/h5,7-8,10,13H,4,6H2,1-3H3",XJHDMGJURBVLLE-UHFFFAOYSA-N,O=C(OC(C(C(C=CC1=O)(CC2)C)=C1C)C23)C3C,-3.09,0.0,1,G1
E-956,Acetohexamide,"InChI=1S/C15H20N2O4S/c1-11(18)12-7-9-14(10-8-12)22(20,21)17-15(19)16-13-5-3-2-4-6-13/h7-10,13H,2-6H2,1H3,(H2,16,17,19)",VGZSUPCWNCWDAN-UHFFFAOYSA-N,O=C(NC(CCCC1)C1)NS(=O)(=O)c(ccc(c2)C(=O)C)c2,-2.06,0.0,1,G1
E-957,Meperidine,"InChI=1S/C15H21NO2/c1-3-18-14(17)15(9-11-16(2)12-10-15)13-7-5-4-6-8-13/h4-8H,3,9-12H2,1-2H3",XADCESSVHJOZHK-UHFFFAOYSA-N,CCOC(=O)C1(CCN(C)CC1)c2ccccc2,-1.89,0.15499999999999992,2,G3
E-958,Metalaxyl,"InChI=1S/C15H21NO4/c1-10-7-6-8-11(2)14(10)16(13(17)9-19-4)12(3)15(18)20-5/h6-8,12H,9H2,1-5H3",ZQEIXNIJLIKNTD-UHFFFAOYSA-N,COCC(=O)N(C(C)C(=O)OC)c1c(C)cccc1C,-1.6,0.03905000000000003,2,G3
E-960,Parethoxycaine,"InChI=1S/C15H23NO3/c1-4-16(5-2)11-12-19-15(17)13-7-9-14(10-8-13)18-6-3/h7-10H,4-6,11-12H2,1-3H3",OWWVHQUOYSPNNE-UHFFFAOYSA-N,c1cc(OCC)ccc1C(=O)OCCN(CC)CC,-2.71,0.0,1,G1
E-961,Sparteine,"InChI=1S/C15H26N2/c1-3-7-16-11-13-9-12(14(16)5-1)10-17-8-4-2-6-15(13)17/h12-15H,1-11H2",SLRCCWJSBJZJBV-UHFFFAOYSA-N,C1CCN2CC(C3)C4CCCCN4CC3C2C1,-1.89,0.0,1,G1
E-962,Pentadecanoic_Acid,"InChI=1S/C15H30O2/c1-2-3-4-5-6-7-8-9-10-11-12-13-14-15(16)17/h2-14H2,1H3,(H,16,17)",WQEPLUUGTLDZJY-UHFFFAOYSA-N,O=C(O)CCCCCCCCCCCCCC,-4.31,0.0,1,G1
E-963,Metolazone,"InChI=1S/C16H16ClN3O3S/c1-9-5-3-4-6-14(9)20-10(2)19-13-8-12(17)15(24(18,22)23)7-11(13)16(20)21/h3-8,10,19H,1-2H3,(H2,18,22,23)",AQCHWTWZEMGIFD-UHFFFAOYSA-N,CC2Nc1cc(Cl)c(cc1C(=O)N2c3ccccc3C)S(N)(=O)=O,-3.78,0.03499999999999992,2,G3
E-964,Difenoxuron,"InChI=1S/C16H18N2O3/c1-18(2)16(19)17-12-4-6-14(7-5-12)21-15-10-8-13(20-3)9-11-15/h4-11H,1-3H3,(H,17,19)",AMVYOVYGIJXTQB-UHFFFAOYSA-N,COc2ccc(Oc1ccc(NC(=O)N(C)C)cc1)cc2,-4.16,0.0,1,G1
E-965,Butacarb,"InChI=1S/C16H25NO2/c1-15(2,3)11-8-12(16(4,5)6)10-13(9-11)19-14(18)17-7/h8-10H,1-7H3,(H,17,18)",SLZWBCGZQRRUNG-UHFFFAOYSA-N,c1c(C(C)(C)C)cc(C(C)(C)C)cc1OC(=O)NC,-4.24,0.0,1,G1
E-967,Bromopropylate,"InChI=1S/C17H16Br2O3/c1-11(2)22-16(20)17(21,12-3-7-14(18)8-4-12)13-5-9-15(19)10-6-13/h3-11,21H,1-2H3",FOANIXZHAMJWOI-UHFFFAOYSA-N,C(O)(c1ccc(Br)cc1)(c2ccc(Br)cc2)C(=O)OC(C)C,-4.93,0.8508,2,G2
E-969,Triflupromazine,"InChI=1S/C18H19F3N2S/c1-22(2)10-5-11-23-14-6-3-4-7-16(14)24-17-9-8-13(12-15(17)23)18(19,20)21/h3-4,6-9,12H,5,10-11H2,1-2H3",XSCGXQMFQXDFCW-UHFFFAOYSA-N,CN(C)CCCN2c1ccccc1Sc3ccc(C(F)(F)F)cc23,-5.3,0.0,1,G1
E-970,Piperine,"InChI=1S/C17H19NO3/c19-17(18-10-4-1-5-11-18)7-3-2-6-14-8-9-15-16(12-14)21-13-20-15/h2-3,6-9,12H,1,4-5,10-11,13H2",MXXWOMGUGJBKIW-UHFFFAOYSA-N,O=C(N(CCCC1)C1)C=CC=Cc(ccc(OCO2)c23)c3,-3.46,0.0,1,G1
E-971,Napropamide,"InChI=1S/C17H21NO2/c1-4-18(5-2)17(19)13(3)20-16-12-8-10-14-9-6-7-11-15(14)16/h6-13H,4-5H2,1-3H3",WXZVAROIGSFCFJ-UHFFFAOYSA-N,CCN(CC)C(=O)C(C)Oc1cccc2ccccc12,-3.57,0.015000000000000124,2,G3
E-974,Butachlor,"InChI=1S/C17H26ClNO2/c1-4-7-11-21-13-19(16(20)12-18)17-14(5-2)9-8-10-15(17)6-3/h8-10H,4-7,11-13H2,1-3H3",HKPHPIREJKHECO-UHFFFAOYSA-N,CCCCOCN(C(=O)CCl)c1c(CC)cccc1CC,-4.19,0.028900000000000148,2,G3
E-977,Thebainone_A,"InChI=1S/C18H21NO3/c1-19-8-7-18-10-12(20)4-5-13(18)14(19)9-11-3-6-15(22-2)17(21)16(11)18/h3-6,13-14,21H,7-10H2,1-2H3",SLJDAVMWFVYEFI-UHFFFAOYSA-N,c1c(OC)c(O)c2C3(C4)CC(=O)C=CC3C(N(C)C4)Cc2c1,-1.87,0.0,1,G1
E-978,Desipramine,"InChI=1S/C18H22N2/c1-19-13-6-14-20-17-9-4-2-7-15(17)11-12-16-8-3-5-10-18(16)20/h2-5,7-10,19H,6,11-14H2,1H3",HCYAFALTSJYZDH-UHFFFAOYSA-N,CNCCCN2c1ccccc1CCc3ccccc23,-3.66,0.015000000000000124,2,G3
E-979,alpha-Estradiol,"InChI=1S/C18H24O2/c1-18-9-8-14-13-5-3-12(19)10-11(13)2-4-15(14)16(18)6-7-17(18)20/h3,5,10,14-17,19-20H,2,4,6-9H2,1H3",VOXZDWNPVJITMN-UHFFFAOYSA-N,c1c(O)cc2CCC3C4CCC(O)C4(C)CCC3c2c1,-4.84,0.0950000000000002,2,G3
E-980,Cyhexatin,"InChI=1S/3C6H11.H2O.Sn/c3*1-2-4-6-5-3-1;;/h3*1H,2-6H2;1H2;",UGCNRZFAUBJVPT-UHFFFAOYSA-N,C1CCC(CC1)[Sn](C2CCCCC2)C3CCCCC3.O,-5.59,0.0,1,G1
E-981,Stearic_Acid,"InChI=1S/C18H36O2/c1-2-3-4-5-6-7-8-9-10-11-12-13-14-15-16-17-18(19)20/h2-17H2,1H3,(H,19,20)",QIQXTHQIDYTFRH-UHFFFAOYSA-N,O=C(O)CCCCCCCCCCCCCCCCC,-5.68,0.34999999999999964,2,G3
E-982,Warfarin,"InChI=1S/C19H16O4/c1-12(20)11-15(13-7-3-2-4-8-13)17-18(21)14-9-5-6-10-16(14)23-19(17)22/h2-10,15,21H,11H2,1H3",PJVWKTKQMONHTI-UHFFFAOYSA-N,c1ccc2C(O)=C(C(c3ccccc3)CC(=O)C)C(=O)Oc2c1,-3.89,0.44500000000000006,2,G3
E-983,Kebuzone,"InChI=1S/C19H18N2O3/c1-14(22)12-13-17-18(23)20(15-8-4-2-5-9-15)21(19(17)24)16-10-6-3-7-11-16/h2-11,17H,12-13H2,1H3",LGYTZKPVOAIUKX-UHFFFAOYSA-N,CC(=O)CCC1C(=O)N(c2ccccc2)N(c3ccccc3)C1=O,-3.27,0.0,1,G1
E-984,Cinchonidine,"InChI=1S/C19H22N2O/c1-2-13-12-21-10-8-14(13)11-18(21)19(22)16-7-9-20-17-6-4-3-5-15(16)17/h2-7,9,13-14,18-19,22H,1,8,10-12H2",KMPWYEUPVWOPIM-UHFFFAOYSA-N,OC(c(c(c(nc1)ccc2)c2)c1)C(N(CCC3C4C=C)C4)C3,-3.07,0.050000000000000044,2,G3
E-985,Mepazine,"InChI=1S/C19H22N2S/c1-20-12-6-7-15(13-20)14-21-16-8-2-4-10-18(16)22-19-11-5-3-9-17(19)21/h2-5,8-11,15H,6-7,12-14H2,1H3",CBHCDHNUZWWAPP-UHFFFAOYSA-N,c1ccc2Sc3ccccc3N(CC4CN(C)CCC4)c2c1,-4.74,0.0,1,G1
E-986,Amitraz,"InChI=1S/C19H23N3/c1-14-6-8-18(16(3)10-14)20-12-22(5)13-21-19-9-7-15(2)11-17(19)4/h6-13H,1-5H3",QXAITBQSYVNQDR-UHFFFAOYSA-N,CN(C=Nc1ccc(C)cc1C)C=Nc2ccc(C)cc2C,-5.47,0.0,1,G1
E-988,Adrenosterone,"InChI=1S/C19H24O3/c1-18-8-7-12(20)9-11(18)3-4-13-14-5-6-16(22)19(14,2)10-15(21)17(13)18/h9,13-14,17H,3-8,10H2,1-2H3",RZRPTBIGEANTGU-UHFFFAOYSA-N,C1C(=O)C=C2CCC3C4CCC(=O)C4(C)CC(=O)C3C2(C)C1,-3.48,0.0,1,G1
E-990,Androstane-17-one,"InChI=1S/C19H30O/c1-18-11-4-3-5-13(18)6-7-14-15-8-9-17(20)19(15,2)12-10-16(14)18/h13-16H,3-12H2,1-2H3",YJDYCULVYZDESB-UHFFFAOYSA-N,O=C1C2(C(C3CCC4C(C3CC2)(C)CCCC4)CC1)C,-6.7,0.0,1,G1
E-991,Androsterone,"InChI=1S/C19H30O2/c1-18-9-7-13(20)11-12(18)3-4-14-15-5-6-17(21)19(15,2)10-8-16(14)18/h12-16,20H,3-11H2,1-2H3",QGXBDMJGAMFCBF-UHFFFAOYSA-N,C1C(O)CC2CCC3C4CCC(=O)C4(C)CCC3C2(C)C1,-4.4,0.1200000000000001,2,G3
E-992,Hydroxyisoandrosterone,"InChI=1S/C19H30O3/c1-18-8-7-12(20)9-11(18)3-4-13-14-5-6-16(22)19(14,2)10-15(21)17(13)18/h11-15,17,20-21H,3-10H2,1-2H3",PIXFHVWJOVNKQK-UHFFFAOYSA-N,C1C(O)CC2CCC3C4CCC(=O)C4(C)CC(O)C3C2(C)C1,-3.59,0.0,1,G1
E-993,Methoprene,"InChI=1S/C19H34O3/c1-15(2)22-18(20)14-17(4)11-8-10-16(3)12-9-13-19(5,6)21-7/h8,11,14-16H,9-10,12-13H2,1-7H3",NFGXHKASABOEEW-UHFFFAOYSA-N,COC(C)(C)CCCC(C)CC=CC(C)=CC(=O)OC(C)C,-5.19,0.0,1,G1
E-997,Ajmaline,"InChI=1S/C20H26N2O2/c1-3-10-11-8-14-17-20(12-6-4-5-7-13(12)21(17)2)9-15(16(11)18(20)23)22(14)19(10)24/h4-7,10-11,14-19,23-24H,3,8-9H2,1-2H3",CJDRUOGAGYHKKD-UHFFFAOYSA-N,c1ccc2N(C)C3C4CC5C(CC)C(O)N4C(C56)CC3(C6O)c2c1,-2.82,0.0,1,G1
E-998,Cinmetacin,"InChI=1S/C21H19NO4/c1-14-17(13-21(24)25)18-12-16(26-2)9-10-19(18)22(14)20(23)11-8-15-6-4-3-5-7-15/h3-12H,13H2,1-2H3,(H,24,25)",NKPPORKKCMYYTO-UHFFFAOYSA-N,c1c(OC)cc2c(CC(=O)O)c(C)n(C(=O)C=Cc3ccccc3)c2c1,-5.54,0.0,1,G1
E-999,Permethrin,"InChI=1S/C21H20Cl2O3/c1-21(2)17(12-18(22)23)19(21)20(24)25-13-14-7-6-10-16(11-14)26-15-8-4-3-5-9-15/h3-12,17,19H,13H2,1-2H3",RLLPVAHGXHCWKJ-UHFFFAOYSA-N,CC1(C)C(C=C(Cl)Cl)C1C(=O)OCc3cccc(Oc2ccccc2)c3,-6.29,0.7599999999999998,2,G2
E-1000,Demeclocycline,"InChI=1S/C21H21ClN2O8/c1-24(2)14-7-5-6-10(16(27)12-9(25)4-3-8(22)11(12)15(6)26)18(29)21(7,32)19(30)13(17(14)28)20(23)31/h3-4,6-7,14-15,25-26,28-29,32H,5H2,1-2H3,(H2,23,31)",FMTDIUIBLCQGJB-UHFFFAOYSA-N,c1cc(O)c2C(=O)C3=C(O)C4(O)C(=O)C(C(=O)N)=C(O)C(N(C)C)C4CC3C(O)c2c1Cl,-2.52,0.014999999999999902,2,G3
E-1001,Pericyazine,"InChI=1S/C21H23N3OS/c22-15-16-6-7-21-19(14-16)24(18-4-1-2-5-20(18)26-21)11-3-10-23-12-8-17(25)9-13-23/h1-2,4-7,14,17,25H,3,8-13H2",LUALIOATIOESLM-UHFFFAOYSA-N,c1ccc2Sc3ccc(C(#N))cc3N(CCCN4CCC(O)CC4)c2c1,-3.98,0.0,1,G1
E-1002,Aldosterone,"InChI=1S/C21H28O5/c1-20-7-6-12(23)8-11(20)2-3-13-14-4-5-15(16(24)10-22)21(14)9-17(18(13)20)26-19(21)25/h8,13-15,17-19,22,25H,2-7,9-10H2,1H3",QUQBHBRVKLEOEI-UHFFFAOYSA-N,C1C(=O)C=C2CCC3C4CCC(C(=O)CO)C4(C5O)CC(O5)C3C2(C)C1,-3.85,0.0,1,G1
E-1005,Pregnenolone,"InChI=1S/C21H32O2/c1-13(22)17-6-7-18-16-5-4-14-12-15(23)8-10-20(14,2)19(16)9-11-21(17,18)3/h4,15-19,23H,5-12H2,1-3H3",ORNBQBCIOKFOEO-UHFFFAOYSA-N,C1C(O)CC2=CCC3C4CCC(C(=O)C)C4(C)CCC3C2(C)C1,-4.65,0.0,1,G1
E-1006,Chlortetracycline,"InChI=1S/C22H23ClN2O8/c1-21(32)7-6-8-15(25(2)3)17(28)13(20(24)31)19(30)22(8,33)18(29)11(7)16(27)12-10(26)5-4-9(23)14(12)21/h4-5,7-8,15,26,28-29,32-33H,6H2,1-3H3,(H2,24,31)",CYDMQBQPVICBEU-UHFFFAOYSA-N,O=C(N)C(=C(O)C(N(C)C)C(C1(O)C(O)=C(C2C(O)(c(c3c(O)cc4)c4Cl)C)C3=O)C2)C1=O,-2.88,0.0,1,G1