ID,Name,InChI,InChIKey,SMILES,Solubility,SD,Occurrences,Group
C-2398,"3',4',5,7-tetrahydroxyflavone; luteolin","InChI=1S/C15H10O6/c16-8-4-11(19)15-12(20)6-13(21-14(15)5-8)7-1-2-9(17)10(18)3-7/h1-6,16-19H",IQPNAANSBPBGFQ-UHFFFAOYSA-N,OC1=CC2=C(C(=C1)O)C(=O)C=C(O2)C3=CC(=C(O)C=C3)O,-3.61,0.0,1,G1
C-2399,azapropazone; apazone,"InChI=1S/C16H20N4O2/c1-5-6-11-14(21)19-13-9-10(2)7-8-12(13)17-16(18(3)4)20(19)15(11)22/h7-9,22H,5-6H2,1-4H3",VECZDVJCSZXAPJ-UHFFFAOYSA-N,CCCC1=C(O)N2N(C1=O)C3=CC(=CC=C3N=C2N(C)C)C,-3.63,0.0,1,G1
C-2400,"10-butyl-1,2-benzanthracene","InChI=1S/C22H20/c1-2-3-6-16-9-10-18-14-19-12-11-17-7-4-5-8-21(17)22(19)15-20(18)13-16/h4-5,7-15H,2-3,6H2,1H3",NOYOIPQGXQUMJJ-UHFFFAOYSA-N,CCCCC1=CC2=C(C=C1)C=C3C=CC4=C(C=CC=C4)C3=C2,-7.52,0.0,1,G1
C-2401,cefroxadine,"InChI=1S/C16H19N3O5S/c1-24-9-7-25-15-11(14(21)19(15)12(9)16(22)23)18-13(20)10(17)8-5-3-2-4-6-8/h2-3,6,10-11,15H,4-5,7,17H2,1H3,(H,18,20)(H,22,23)",RDMOROXKXONCAL-UHFFFAOYSA-N,COC1=C(N2C(SC1)C(NC(=O)C(N)C3=CCC=CC3)C2=O)C(O)=O,-1.89,0.0,1,G1
C-2402,benzoylprop ethyl,"InChI=1S/C18H17Cl2NO3/c1-3-24-18(23)12(2)21(14-9-10-15(19)16(20)11-14)17(22)13-7-5-4-6-8-13/h4-12H,3H2,1-2H3",SLCGUGMPSUYJAY-UHFFFAOYSA-N,CCOC(=O)C(C)N(C(=O)C1=CC=CC=C1)C2=CC(=C(Cl)C=C2)Cl,-4.26,0.0,1,G1
C-2403,"1-(methylaminoacetylamino)-3-chloro-4,6-disulfamoylbenzene; n-(5-chloro-2,4-disulfamoylphenyl)-2-(methylamino)acetamide","InChI=1S/C9H13ClN4O5S2/c1-13-4-9(15)14-6-2-5(10)7(20(11,16)17)3-8(6)21(12,18)19/h2-3,13H,4H2,1H3,(H,14,15)(H2,11,16,17)(H2,12,18,19)",QJRULOWVWPKJHB-UHFFFAOYSA-N,CNCC(=O)NC1=C(C=C(C(=C1)Cl)[S](N)(=O)=O)[S](N)(=O)=O,-1.27,0.0,1,G1
C-2404,"9-chloro-7-methyl-1,2-benzanthracene;  9-chloro-7-methylbenz[a]anthracene","InChI=1S/C19H13Cl/c1-12-16-9-7-13-4-2-3-5-17(13)19(16)10-14-6-8-15(20)11-18(12)14/h2-11H,1H3",KSPYBKJPLXLJIX-UHFFFAOYSA-N,CC1=C2C=CC3=C(C=CC=C3)C2=CC4=CC=C(Cl)C=C14,-7.44,0.0,1,G1
C-2405,diisopropyl  2-(4-nitrophenylsulfonyl)succinate; 3-isopropoxycarbonyl-3-(4-nitrophenylsulfonyl)propanoic acid isopropyl ester,"InChI=1S/C16H21NO8S/c1-10(2)24-15(18)9-14(16(19)25-11(3)4)26(22,23)13-7-5-12(6-8-13)17(20)21/h5-8,10-11,14H,9H2,1-4H3",UJXAIAIZGQQXIX-UHFFFAOYSA-N,CC(C)OC(=O)CC(C(=O)OC(C)C)[S](=O)(=O)C1=CC=C(C=C1)[N+]([O-])=O,-4.29,0.0,1,G1
C-2406,fleroxacin,"InChI=1S/C17H18F3N3O3/c1-21-4-6-22(7-5-21)15-12(19)8-10-14(13(15)20)23(3-2-18)9-11(16(10)24)17(25)26/h8-9H,2-7H2,1H3,(H,25,26)",XBJBPGROQZJDOJ-UHFFFAOYSA-N,CN1CCN(CC1)C2=C(F)C3=C(C=C2F)C(=O)C(=CN3CCF)C(O)=O,-2.73,0.0,1,G1
C-2407,s-(-)-nadifloxacin;  jinofloxacin,"InChI=1S/C19H21FN2O4/c1-10-2-3-12-16-13(18(24)14(19(25)26)9-22(10)16)8-15(20)17(12)21-6-4-11(23)5-7-21/h8-11,23H,2-7H2,1H3,(H,25,26)",JYJTVFIEFKZWCJ-UHFFFAOYSA-N,CC1CCC2=C(N3CCC(O)CC3)C(=CC4=C2N1C=C(C(O)=O)C4=O)F,-3.78,0.0,1,G1
C-2408,n4-acetyl-n1-(1-ethyl-2-oxopyrimidin-4-yl)sulfanilamide; 4-(n4-acetylsulfanilamido)-1-ethyl-1h-pyrimidin-2-one; n4-acetylsulfacytine,"InChI=1S/C14H16N4O4S/c1-3-18-9-8-13(16-14(18)20)17-23(21,22)12-6-4-11(5-7-12)15-10(2)19/h4-9H,3H2,1-2H3,(H,15,19)(H,16,17,20)",FEALZKNFXRGXNS-UHFFFAOYSA-N,CCN1C=CC(=NC1=O)N[S](=O)(=O)C2=CC=C(NC(C)=O)C=C2,-2.71,0.0,1,G1
C-2409,"n4-acetylsulfaethidole; 2-(n4-acetylsulfa)-5-ethyl-1,3,4-thiadiazole","InChI=1S/C12H14N4O3S2/c1-3-11-14-15-12(20-11)16-21(18,19)10-6-4-9(5-7-10)13-8(2)17/h4-7H,3H2,1-2H3,(H,13,17)(H,15,16)",UPRXAKRITNJEII-UHFFFAOYSA-N,CCC1=NN=C(N[S](=O)(=O)C2=CC=C(NC(C)=O)C=C2)S1,-3.4,0.0,1,G1
C-2410,fenoxaprop-p,"InChI=1S/C16H12ClNO5/c1-9(15(19)20)21-11-3-5-12(6-4-11)22-16-18-13-7-2-10(17)8-14(13)23-16/h2-9H,1H3,(H,19,20)",MPPOHAUSNPTFAJ-UHFFFAOYSA-N,CC(OC1=CC=C(OC2=NC3=C(O2)C=C(Cl)C=C3)C=C1)C(O)=O,-3.09,0.0,1,G1
C-2411,"4-(4-bromo-2-fluorophenylamino)-1,5-dimethyl-6-oxo-1,6-dihydropyridine-3-carboxylic acid methoxyamide","InChI=1S/C15H15BrFN3O3/c1-8-13(18-12-5-4-9(16)6-11(12)17)10(14(21)19-23-3)7-20(2)15(8)22/h4-7,18H,1-3H3,(H,19,21)",FFWCBXXLTJLUOY-UHFFFAOYSA-N,CONC(=O)C1=CN(C)C(=O)C(=C1NC2=CC=C(Br)C=C2F)C,-3.28,0.0,1,G1
C-2412,"2,3,3',4,4',5,5',6-octachlorobiphenyl",InChI=1S/C12H2Cl8/c13-4-1-3(2-5(14)7(4)15)6-8(16)10(18)12(20)11(19)9(6)17/h1-2H,VXXBCDUYUQKWCK-UHFFFAOYSA-N,ClC1=C(Cl)C(=CC(=C1)C2=C(Cl)C(=C(Cl)C(=C2Cl)Cl)Cl)Cl,-9.7,0.0,1,G1
C-2413,coroxon,"InChI=1S/C14H16ClO6P/c1-4-18-22(17,19-5-2)21-10-6-7-11-9(3)13(15)14(16)20-12(11)8-10/h6-8H,4-5H2,1-3H3",FDYMERLIFOUIRZ-UHFFFAOYSA-N,CCO[P](=O)(OCC)OC1=CC2=C(C=C1)C(=C(Cl)C(=O)O2)C,-3.18,0.0,1,G1
C-2414,"2,2',3,3',4,4',5,6'-octachlorobiphenyl",InChI=1S/C12H2Cl8/c13-4-2-6(15)9(17)11(19)7(4)3-1-5(14)10(18)12(20)8(3)16/h1-2H,BQFCCUSDZLKBJG-UHFFFAOYSA-N,ClC1=CC(=C(C(=C1Cl)Cl)C2=C(Cl)C(=C(Cl)C(=C2)Cl)Cl)Cl,-9.42,0.0,1,G1
C-2415,"2,2',3,4,4',5,5',6-octachlorobiphenyl",InChI=1S/C12H2Cl8/c13-4-2-6(15)5(14)1-3(4)7-8(16)10(18)12(20)11(19)9(7)17/h1-2H,DCPDZFRGNJDWPP-UHFFFAOYSA-N,ClC1=C(Cl)C=C(C(=C1)Cl)C2=C(Cl)C(=C(Cl)C(=C2Cl)Cl)Cl,-9.5,0.0,1,G1
C-2416,"2,2',3,3',4,4',5,6-octachlorobiphenyl",InChI=1S/C12H2Cl8/c13-4-2-1-3(6(14)7(4)15)5-8(16)10(18)12(20)11(19)9(5)17/h1-2H,JAHJITLFJSDRCG-UHFFFAOYSA-N,ClC1=CC=C(C(=C1Cl)Cl)C2=C(Cl)C(=C(Cl)C(=C2Cl)Cl)Cl,-9.29,0.0,1,G1
C-2417,"2,2',3,3',4,5,5',6'-octachlorobiphenyl",InChI=1S/C12H2Cl8/c13-4-1-3(8(16)12(20)11(4)19)7-9(17)5(14)2-6(15)10(7)18/h1-2H,HJBYDWKNARZTMJ-UHFFFAOYSA-N,ClC1=CC(=C(Cl)C(=C1Cl)Cl)C2=C(Cl)C(=CC(=C2Cl)Cl)Cl,-9.29,0.0,1,G1
C-2418,"2,2',3,3',4,5,5',6-octachlorobiphenyl",InChI=1S/C12H2Cl8/c13-3-1-4(7(15)5(14)2-3)6-8(16)10(18)12(20)11(19)9(6)17/h1-2H,PJHBSPRZHUOIAS-UHFFFAOYSA-N,ClC1=CC(=C(Cl)C(=C1)Cl)C2=C(Cl)C(=C(Cl)C(=C2Cl)Cl)Cl,-9.42,0.0,1,G1
C-2419,"2,2',3,3',4,4',6,6'-octachlorobiphenyl",InChI=1S/C12H2Cl8/c13-3-1-5(15)9(17)11(19)7(3)8-4(14)2-6(16)10(18)12(8)20/h1-2H,YPDBBDKYNWRFMF-UHFFFAOYSA-N,ClC1=CC(=C(C(=C1Cl)Cl)C2=C(Cl)C(=C(Cl)C=C2Cl)Cl)Cl,-9.1,0.0,1,G1
C-2420,"2,2',3,4,4',5,6,6'-octachlorobiphenyl",InChI=1S/C12H2Cl8/c13-3-1-4(14)6(5(15)2-3)7-8(16)10(18)12(20)11(19)9(7)17/h1-2H,JDZUWXRNKHXZFE-UHFFFAOYSA-N,ClC1=CC(=C(C(=C1)Cl)C2=C(Cl)C(=C(Cl)C(=C2Cl)Cl)Cl)Cl,-9.48,0.0,1,G1
C-2421,"2,2',3,3',4,5',6,6'-octachlorobiphenyl",InChI=1S/C12H2Cl8/c13-3-1-6(16)11(19)12(20)7(3)8-9(17)4(14)2-5(15)10(8)18/h1-2H,LJQOBQLZTUSEJA-UHFFFAOYSA-N,ClC1=C(Cl)C(=C(C(=C1)Cl)C2=C(Cl)C(=CC(=C2Cl)Cl)Cl)Cl,-9.2,0.0,1,G1
C-2422,"acyclovir ester iii,  o-[(4-dimethylaminomethyl)benzoyl]acyclovir","InChI=1S/C18H22N6O4/c1-23(2)9-12-3-5-13(6-4-12)17(26)28-8-7-27-11-24-10-20-14-15(24)21-18(19)22-16(14)25/h3-6,10H,7-9,11H2,1-2H3,(H3,19,21,22,25)",WNZOPNWEGQVFCY-UHFFFAOYSA-N,CN(C)CC1=CC=C(C=C1)C(=O)OCCOC[N]2C=NC3=C2N=C(N)NC3=O,-2.47,0.0,1,G1
C-2423,n3-[(3-hydroxy-2-hydroxymethyl)propanoyloxymethyl]phenytoin,"InChI=1S/C20H20N2O6/c23-11-14(12-24)17(25)28-13-22-18(26)20(21-19(22)27,15-7-3-1-4-8-15)16-9-5-2-6-10-16/h1-10,14,23-24H,11-13H2,(H,21,27)",WTFDBEWCLSDGPA-UHFFFAOYSA-N,OCC(CO)C(=O)OCN1C(=O)NC(C1=O)(C2=CC=CC=C2)C3=CC=CC=C3,-2.21,0.0,1,G1
C-2424,"2,2',3,3',4,5,6,6'-octachlorobiphenyl",InChI=1S/C12H2Cl8/c13-3-1-2-4(14)7(15)5(3)6-8(16)10(18)12(20)11(19)9(6)17/h1-2H,HHXNVASVVVNNDG-UHFFFAOYSA-N,ClC1=C(Cl)C(=C(Cl)C=C1)C2=C(Cl)C(=C(Cl)C(=C2Cl)Cl)Cl,-9.1,0.0,1,G1
C-2425,"ketoprofen,  ester 4c; n-methyl-n-[2-(2'-(3''-benzoyl-phenyl)propanoyloxy)acetyl]glycineamide","InChI=1S/C21H22N2O5/c1-14(21(27)28-13-19(25)23(2)12-18(22)24)16-9-6-10-17(11-16)20(26)15-7-4-3-5-8-15/h3-11,14H,12-13H2,1-2H3,(H2,22,24)",HJQCXQXWUDAPBT-UHFFFAOYSA-N,CC(C(=O)OCC(=O)N(C)CC(N)=O)C1=CC(=CC=C1)C(=O)C2=CC=CC=C2,-2.42,0.0,1,G1
C-2426,7-pentyl-benz[a]anthracene,"InChI=1S/C23H22/c1-2-3-4-13-21-20-12-8-6-10-18(20)16-23-19-11-7-5-9-17(19)14-15-22(21)23/h5-12,14-16H,2-4,13H2,1H3",OPHSDBPYDDKGOA-UHFFFAOYSA-N,CCCCCC1=C2C=CC3=C(C=CC=C3)C2=CC4=C1C=CC=C4,-8.57,0.0,1,G1
C-2427,"2,2',3,3',4,4',5,5'-octachlorodiphenyl  ether",InChI=1S/C12H2Cl8O/c13-3-1-5(9(17)11(19)7(3)15)21-6-2-4(14)8(16)12(20)10(6)18/h1-2H,IXZVOZCULZBCDY-UHFFFAOYSA-N,ClC1=CC(=C(Cl)C(=C1Cl)Cl)OC2=CC(=C(Cl)C(=C2Cl)Cl)Cl,-10.1,0.015000000000000568,2,G3
C-2428,"4-(4-bromo-2-fluorophenylamino)-n-ethoxy-1,5-dimethyl-6-oxo-1,6-dihydropyridine-3-carboxamide","InChI=1S/C16H17BrFN3O3/c1-4-24-20-15(22)11-8-21(3)16(23)9(2)14(11)19-13-6-5-10(17)7-12(13)18/h5-8,19H,4H2,1-3H3,(H,20,22)",IKVITEMYFVVJFY-UHFFFAOYSA-N,CCONC(=O)C1=CN(C)C(=O)C(=C1NC2=C(F)C=C(Br)C=C2)C,-3.82,0.0,1,G1
C-2429,"5,5-diphenylhydantoin-3-methyl  octanoate","InChI=1S/C24H28N2O4/c1-2-3-4-5-12-17-21(27)30-18-26-22(28)24(25-23(26)29,19-13-8-6-9-14-19)20-15-10-7-11-16-20/h6-11,13-16H,2-5,12,17-18H2,1H3,(H,25,29)",IDZYLIZKJFAXAS-UHFFFAOYSA-N,CCCCCCCC(=O)OCN1C(=O)NC(C1=O)(C2=CC=CC=C2)C3=CC=CC=C3,-6.52,0.0,1,G1
C-2430,phenolphthalin,"InChI=1S/C20H16O4/c21-15-9-5-13(6-10-15)19(14-7-11-16(22)12-8-14)17-3-1-2-4-18(17)20(23)24/h1-12,19,21-22H,(H,23,24)",FFFPYJTVNSSLBQ-UHFFFAOYSA-N,OC1=CC=C(C=C1)C(C2=CC=C(O)C=C2)C3=CC=CC=C3C(O)=O,-3.26,0.0,1,G1
C-2431,2-bromo-4-nitro-1-sulfanilamidobenzene;  2-bromo-4-nitro-1-sulfabenzene,"InChI=1S/C12H10BrN3O4S/c13-11-7-9(16(17)18)3-6-12(11)15-21(19,20)10-4-1-8(14)2-5-10/h1-7,15H,14H2",HMKBHDBLXCCKGW-UHFFFAOYSA-N,NC1=CC=C(C=C1)[S](=O)(=O)NC2=CC=C(C=C2Br)[N+]([O-])=O,-4.78,0.0,1,G1
C-2432,2-carboxy-7-methylsulfinylxanthone; 7-methylsulfinylxanthone-2-carboxylic acid; 7-methylsulfinyl-9-oxo-9h-xanthene-2-carboxylic acid,"InChI=1S/C15H10O5S/c1-21(19)9-3-5-13-11(7-9)14(16)10-6-8(15(17)18)2-4-12(10)20-13/h2-7H,1H3,(H,17,18)",PCVFKIXSNYJABV-UHFFFAOYSA-N,C[S](=O)C1=CC=C2OC3=C(C=C(C=C3)C(O)=O)C(=O)C2=C1,-5.02,0.0,1,G1
C-2433,flurtamone,"InChI=1S/C18H14F3NO2/c1-22-17-14(12-8-5-9-13(10-12)18(19,20)21)15(23)16(24-17)11-6-3-2-4-7-11/h2-10,16,22H,1H3",NYRMIJKDBAQCHC-UHFFFAOYSA-N,CNC1=C(C(=O)C(O1)C2=CC=CC=C2)C3=CC(=CC=C3)C(F)(F)F,-3.98,0.0,1,G1
C-2434,rs-82917;  7-(4-methylthiobenzoyl)benzofuran-5-yl-acetic acid,"InChI=1S/C18H14O4S/c1-23-14-4-2-12(3-5-14)17(21)15-9-11(10-16(19)20)8-13-6-7-22-18(13)15/h2-9H,10H2,1H3,(H,19,20)",WNYGTKAHASSKJM-UHFFFAOYSA-N,CSC1=CC=C(C=C1)C(=O)C2=CC(=CC3=C2OC=C3)CC(O)=O,-5.51,0.0,1,G1
C-2435,chlorsulfuron,"InChI=1S/C12H12ClN5O4S/c1-7-14-10(17-12(15-7)22-2)16-11(19)18-23(20,21)9-6-4-3-5-8(9)13/h3-6H,1-2H3,(H2,14,15,16,17,18,19)",VJYIFXVZLXQVHO-UHFFFAOYSA-N,COC1=NC(=NC(=N1)NC(=O)N[S](=O)(=O)C2=CC=CC=C2Cl)C,-1.71,0.0,1,G1
C-2436,"2-sulfamoyl-5-phenylsulfonamido-1,3,4-thiadiazole","InChI=1S/C8H8N4O4S3/c9-18(13,14)8-11-10-7(17-8)12-19(15,16)6-4-2-1-3-5-6/h1-5H,(H,10,12)(H2,9,13,14)",PWDGTQXZLNDOKS-UHFFFAOYSA-N,N[S](=O)(=O)C1=NN=C(N[S](=O)(=O)C2=CC=CC=C2)S1,-2.9,0.0,1,G1
C-2438,"4-(4-bromo-2-fluorophenylamino)-5-fluoro-1-methyl-6-oxo-1,6-dihydropyridine-3-carboxylic acid ethoxyamide","InChI=1S/C15H14BrF2N3O3/c1-3-24-20-14(22)9-7-21(2)15(23)12(18)13(9)19-11-5-4-8(16)6-10(11)17/h4-7,19H,3H2,1-2H3,(H,20,22)",GSLVKBRGRSHUAU-UHFFFAOYSA-N,CCONC(=O)C1=CN(C)C(=O)C(=C1NC2=CC=C(Br)C=C2F)F,-4.19,0.0,1,G1
C-2439,"1,2,3,6,7,8-hexachlorodibenzofuran",InChI=1S/C12H2Cl6O/c13-4-1-3-7-6(2-5(14)8(15)10(7)17)19-12(3)11(18)9(4)16/h1-2H,JEYJJJXOFWNEHN-UHFFFAOYSA-N,ClC1=CC2=C(C(=C1Cl)Cl)C3=C(O2)C(=C(Cl)C(=C3)Cl)Cl,-10.3,0.01499999999999968,2,G3
C-2442,"quercetin dihydrate; 3,5,7,3',4'-pentahydroxyflavone*2h2o; meletin; sophoretin","InChI=1S/C15H10O7/c16-7-4-10(19)12-11(5-7)22-15(14(21)13(12)20)6-1-2-8(17)9(18)3-6/h1-5,16-19,21H",REFJWTPEDVJJIY-UHFFFAOYSA-N,OC1=CC2=C(C(=C1)O)C(=O)C(=C(O2)C3=CC=C(O)C(=C3)O)O,-1.99,0.0,1,G1
C-2445,tmppt; tetramethylpyrimidopteridinetetrone,InChI=1S/C12H12N6O4/c1-15-7-5(9(19)17(3)11(15)21)13-6-8(14-7)16(2)12(22)18(4)10(6)20/h1-4H3,PATBXKKMHRDFHF-UHFFFAOYSA-N,CN1C(=O)N(C)C2=C(N=C3C(=O)N(C)C(=O)N(C)C3=N2)C1=O,-3.31,0.0,1,G1
C-2447,"2-sulfamoyl-5-benzylsulfonylamido-1,3,4-thiadiazole; 5-benzylsulfonylamino-1,3,4-thiadiazole-2-sulfonamide","InChI=1S/C9H10N4O4S3/c10-20(16,17)9-12-11-8(18-9)13-19(14,15)6-7-4-2-1-3-5-7/h1-5H,6H2,(H,11,13)(H2,10,16,17)",CYPRFFCTABNEJY-UHFFFAOYSA-N,N[S](=O)(=O)C1=NN=C(N[S](=O)(=O)CC2=CC=CC=C2)S1,-2.7,0.0,1,G1
C-2448,methyl alpha-(4-nitrophenylsulfonyl)cinnamate; 2-methoxycarbonyl-2-(4-nitrophenylsulfonyl)styrene,"InChI=1S/C16H13NO6S/c1-23-16(18)15(11-12-5-3-2-4-6-12)24(21,22)14-9-7-13(8-10-14)17(19)20/h2-11H,1H3/b15-11-",POYJJXCXXKQSST-PTNGSMBKSA-N,COC(=O)\C(=C\C1=CC=CC=C1)[S](=O)(=O)C2=CC=C(C=C2)[N+]([O-])=O,-4.57,0.0,1,G1
C-2449,coumachlor  (hemiketal isomer),"InChI=1S/C19H15ClO4/c1-19(22)10-14(11-6-8-12(20)9-7-11)16-17(24-19)13-4-2-3-5-15(13)23-18(16)21/h2-9,14,22H,10H2,1H3",ARIFBMNLDCJVSE-UHFFFAOYSA-N,CC1(O)CC(C2=CC=C(Cl)C=C2)C3=C(O1)C4=C(OC3=O)C=CC=C4,-5.84,0.0,1,G1
C-2450,valdecoxib,"InChI=1S/C16H14N2O3S/c1-11-15(12-7-9-14(10-8-12)22(17,19)20)16(18-21-11)13-5-3-2-4-6-13/h2-10H,1H3,(H2,17,19,20)",LNPDTQAFDNKSHK-UHFFFAOYSA-N,CC1=C(C2=CC=C(C=C2)[S](N)(=O)=O)C(=NO1)C3=CC=CC=C3,-4.52,0.0,1,G1
C-2451,"4-(4-bromo-2-fluorophenylamino)-n-(2-hydroxyethoxy)-1,5-dimethyl-6-oxo-1,6-dihydropyridine-3-carboxamide","InChI=1S/C16H17BrFN3O4/c1-9-14(19-13-4-3-10(17)7-12(13)18)11(8-21(2)16(9)24)15(23)20-25-6-5-22/h3-4,7-8,19,22H,5-6H2,1-2H3,(H,20,23)",XHELVEVNEWRBRH-UHFFFAOYSA-N,CN1C=C(C(=O)NOCCO)C(=C(C)C1=O)NC2=C(F)C=C(Br)C=C2,-2.96,0.0,1,G1
C-2452,2-sulfamoyl-6-(aminoacetamidoacetoxyethoxy)benzothiazole,"InChI=1S/C13H16N4O6S2/c14-6-11(18)16-7-12(19)23-4-3-22-8-1-2-9-10(5-8)24-13(17-9)25(15,20)21/h1-2,5H,3-4,6-7,14H2,(H,16,18)(H2,15,20,21)",WNQBATPBJYGENS-UHFFFAOYSA-N,NCC(=O)NCC(=O)OCCOC1=CC2=C(C=C1)N=C(S2)[S](N)(=O)=O,-1.3,0.0,1,G1
C-2453,"2-sulfamoyl-5-(4'-tolyl)sulfonamido-1,3,4-thiadiazole; 5-(4-methylbenzenesulfonylamino)-1,3,4-thiadiazole-2-sulfonamide","InChI=1S/C9H10N4O4S3/c1-6-2-4-7(5-3-6)20(16,17)13-8-11-12-9(18-8)19(10,14)15/h2-5H,1H3,(H,11,13)(H2,10,14,15)",FNICBGZPBTURDA-UHFFFAOYSA-N,CC1=CC=C(C=C1)[S](=O)(=O)NC2=NN=C(S2)[S](N)(=O)=O,-1.22,0.0,1,G1
C-2454,bumetanide,"InChI=1S/C17H20N2O5S/c1-2-3-9-19-14-10-12(17(20)21)11-15(25(18,22)23)16(14)24-13-7-5-4-6-8-13/h4-8,10-11,19H,2-3,9H2,1H3,(H,20,21)(H2,18,22,23)",MAEIEVLCKWDQJH-UHFFFAOYSA-N,CCCCNC1=C(OC2=CC=CC=C2)C(=CC(=C1)C(O)=O)[S](N)(=O)=O,-3.56,0.0,1,G1
C-2456,sparfloxacin,"InChI=1S/C19H22F2N4O3/c1-8-5-24(6-9(2)23-8)17-13(20)15(22)12-16(14(17)21)25(10-3-4-10)7-11(18(12)26)19(27)28/h7-10,23H,3-6,22H2,1-2H3,(H,27,28)",DZZWHBIBMUVIIW-UHFFFAOYSA-N,CC1CN(CC(C)N1)C2=C(F)C3=C(C(=C2F)N)C(=O)C(=CN3C4CC4)C(O)=O,-3.37,0.0,1,G1
C-2457,glafenine,"InChI=1S/C19H17ClN2O4/c20-12-5-6-14-17(7-8-21-18(14)9-12)22-16-4-2-1-3-15(16)19(25)26-11-13(24)10-23/h1-9,13,23-24H,10-11H2,(H,21,22)",GWOFUCIGLDBNKM-UHFFFAOYSA-N,OCC(O)COC(=O)C1=C(NC2=C3C=CC(=CC3=NC=C2)Cl)C=CC=C1,-4.54,1.690551123812061,3,G4
C-2458,"5-(4-aminobenzenesulfonamido)-1,3,4-thiadiazole-2-sulfonamide","InChI=1S/C8H9N5O4S3/c9-5-1-3-6(4-2-5)20(16,17)13-7-11-12-8(18-7)19(10,14)15/h1-4H,9H2,(H,11,13)(H2,10,14,15)",BDLSLORLEPSOGW-UHFFFAOYSA-N,NC1=CC=C(C=C1)[S](=O)(=O)NC2=NN=C(S2)[S](N)(=O)=O,-1.5,0.0,1,G1
C-2460,tamoxifen,"InChI=1S/C26H29NO/c1-4-25(21-11-7-5-8-12-21)26(22-13-9-6-10-14-22)23-15-17-24(18-16-23)28-20-19-27(2)3/h5-18H,4,19-20H2,1-3H3/b26-25-",NKANXQFJJICGDU-QPLCGJKRSA-N,CCC(/C1=CC=CC=C1)=C(\C2=CC=CC=C2)C3=CC=C(OCCN(C)C)C=C3,-8.49,0.0,1,G1
C-2461,"5-methylbenzo[a]pyrene;  5-methyl-3,4-benzopyrene","InChI=1S/C21H14/c1-13-16-7-2-3-8-18(16)19-12-10-15-6-4-5-14-9-11-17(13)21(19)20(14)15/h2-12H,1H3",YFYHJNJCAGHSFA-UHFFFAOYSA-N,CC1=C2C=CC3=C4C(=CC=C3)C=CC(=C24)C5=C1C=CC=C5,-8.52,0.0,1,G1
C-2462,"5-(3-aminobenzenesulfonamido)-1,3,4-thiadiazole-2-sulfonamide","InChI=1S/C8H9N5O4S3/c9-5-2-1-3-6(4-5)20(16,17)13-7-11-12-8(18-7)19(10,14)15/h1-4H,9H2,(H,11,13)(H2,10,14,15)",ZAVXXOXJXNKOFP-UHFFFAOYSA-N,NC1=CC=CC(=C1)[S](=O)(=O)NC2=NN=C(S2)[S](N)(=O)=O,-1.54,0.0,1,G1
C-2463,midazolam,"InChI=1S/C18H13ClFN3/c1-11-21-9-13-10-22-18(14-4-2-3-5-16(14)20)15-8-12(19)6-7-17(15)23(11)13/h2-9H,10H2,1H3",DDLIGBOFAVUZHB-UHFFFAOYSA-N,CC1=NC=C2CN=C(C3=C(F)C=CC=C3)C4=C(C=CC(=C4)Cl)[N]12,-4.13,0.0,1,G1
C-2464,"7h-dibenzo[c,g]carbazole","InChI=1S/C20H13N/c1-3-7-15-13(5-1)9-11-17-19(15)20-16-8-4-2-6-14(16)10-12-18(20)21-17/h1-12,21H",STJXCDGCXVZHDU-UHFFFAOYSA-N,[NH]1C2=C(C3=C(C=CC=C3)C=C2)C4=C1C=CC5=C4C=CC=C5,-6.62,0.0,1,G1
C-2466,cinmetacin;  1-cinnamoyl-5-methoxy-2-methylindole-3-acetic acid,"InChI=1S/C21H19NO4/c1-14-17(13-21(24)25)18-12-16(26-2)9-10-19(18)22(14)20(23)11-8-15-6-4-3-5-7-15/h3-12H,13H2,1-2H3,(H,24,25)/b11-8+",NKPPORKKCMYYTO-DHZHZOJOSA-N,COC1=CC2=C(C=C1)[N](C(=C2CC(O)=O)C)C(=O)\C=C\C3=CC=CC=C3,-5.54,0.0,1,G1
C-2467,prosulfalin,"InChI=1S/C14H22N4O6S2/c1-5-7-16(8-6-2)14-12(17(19)20)9-11(10-13(14)18(21)22)26(23,24)15-25(3)4/h9-10H,5-8H2,1-4H3",LKVOXDJKFRBRQV-UHFFFAOYSA-N,CCCN(CCC)C1=C(C=C(C=C1[N+]([O-])=O)[S](=O)(=O)N=[S](C)C)[N+]([O-])=O,-4.86,0.0,1,G1
C-2468,"2-Amino-2-(4-aminophenyl)-N-[(2R,5S,6S)-3,3-dimethyl-7-oxo-2-(2H-tetrazol-5-yl)-4-thia-1-azabicyclo[3.2.0]hept-6-yl]acetamide","InChI=1S/C16H20N8O2S/c1-16(2)11(12-20-22-23-21-12)24-14(26)10(15(24)27-16)19-13(25)9(18)7-3-5-8(17)6-4-7/h3-6,9-11,15H,17-18H2,1-2H3,(H,19,25)(H,20,21,22,23)",KKJLKMXROHVRMW-UHFFFAOYSA-N,CC1(C)SC2C(NC(=O)C(N)C3=CC=C(N)C=C3)C(=O)N2C1C4=NN=N[NH]4,-1.57,0.0,1,G1
C-2469,"2-sulfamoyl-5-pentafluorobenzoylamido-1,3,4-thiadiazole","InChI=1S/C9H3F5N4O3S2/c10-2-1(3(11)5(13)6(14)4(2)12)7(19)16-8-17-18-9(22-8)23(15,20)21/h(H2,15,20,21)(H,16,17,19)",FQQZIMNHENDFJL-UHFFFAOYSA-N,N[S](=O)(=O)C1=NN=C(NC(=O)C2=C(F)C(=C(F)C(=C2F)F)F)S1,-1.37,0.0,1,G1
C-2470,"fenazaflor; lavozal; tarzol; 5,6-dichloro-1-phenoxycarbonyl-2-trifluoromethylbenzimidazole","InChI=1S/C15H7Cl2F3N2O2/c16-9-6-11-12(7-10(9)17)22(13(21-11)15(18,19)20)14(23)24-8-4-2-1-3-5-8/h1-7H",ISVQSVPUDBVFFU-UHFFFAOYSA-N,FC(F)(F)C1=NC2=C(C=C(Cl)C(=C2)Cl)[N]1C(=O)OC3=CC=CC=C3,-4.46,0.0,1,G1
C-2471,acyclovir ester vi;  acyclovir 3-(dipropylaminomethyl)benzoate,"InChI=1S/C22H30N6O4/c1-3-8-27(9-4-2)13-16-6-5-7-17(12-16)21(30)32-11-10-31-15-28-14-24-18-19(28)25-22(23)26-20(18)29/h5-7,12,14H,3-4,8-11,13,15H2,1-2H3,(H3,23,25,26,29)",NVMBLZBSOKIKNO-UHFFFAOYSA-N,CCCN(CCC)CC1=CC=CC(=C1)C(=O)OCCOC[N]2C=NC3=C2N=C(N)NC3=O,-0.35,0.0,1,G1
C-2472,"2-sulfamoyl-5-(4-chlorobenzenesulfonamido)-1,3,4-thiadiazole","InChI=1S/C8H7ClN4O4S3/c9-5-1-3-6(4-2-5)20(16,17)13-7-11-12-8(18-7)19(10,14)15/h1-4H,(H,11,13)(H2,10,14,15)",AJSWHUXLZRXPJL-UHFFFAOYSA-N,N[S](=O)(=O)C1=NN=C(N[S](=O)(=O)C2=CC=C(Cl)C=C2)S1,-2.01,0.0,1,G1
C-2473,n1-(4-sulfamoylbenzyl)-n3-[(1-carboxy-2-hydroxy-2-phenyl)ethyl]thiourea; 2-(4-sulfamoylbenzyl)thioureido-3-hydroxy-3-phenylpropanoic acid,"InChI=1S/C17H19N3O5S2/c18-27(24,25)13-8-6-11(7-9-13)10-19-17(26)20-14(16(22)23)15(21)12-4-2-1-3-5-12/h1-9,14-15,21H,10H2,(H,22,23)(H2,18,24,25)(H2,19,20,26)",GQACNASLZSJPSN-UHFFFAOYSA-N,N[S](=O)(=O)C1=CC=C(CNC(=S)NC(C(O)C2=CC=CC=C2)C(O)=O)C=C1,-1.29,0.0,1,G1
C-2475,"2-sulfamoyl-4-methyl-5-benzylsulfonylimido-1,3,4-thiadiazoline; 5-benzylsulfonylimido-4-methyl-delta2-1,3,4-thiadiazoline-2-sulfonamide","InChI=1S/C10H12N4O4S3/c1-14-9(19-10(12-14)21(11,17)18)13-20(15,16)7-8-5-3-2-4-6-8/h2-6H,7H2,1H3,(H2,11,17,18)",CEOILGDNBOGUIQ-UHFFFAOYSA-N,CN1N=C(SC1=N[S](=O)(=O)CC2=CC=CC=C2)[S](N)(=O)=O,-2.48,0.0,1,G1
C-2476,"2-sulfamoyl-5-(4'-anisyl)sulfonylamido-1,3,4-thiadiazole; 5-(4-methoxybenzenesulfonylamino)-1,3,4-thiadiazole-2-sulfonamide","InChI=1S/C9H10N4O5S3/c1-18-6-2-4-7(5-3-6)21(16,17)13-8-11-12-9(19-8)20(10,14)15/h2-5H,1H3,(H,11,13)(H2,10,14,15)",DWBVNWWEQWTHLV-UHFFFAOYSA-N,COC1=CC=C(C=C1)[S](=O)(=O)NC2=NN=C(S2)[S](N)(=O)=O,-2.25,0.0,1,G1
C-2478,prazosin,"InChI=1S/C19H21N5O4/c1-26-15-10-12-13(11-16(15)27-2)21-19(22-17(12)20)24-7-5-23(6-8-24)18(25)14-4-3-9-28-14/h3-4,9-11H,5-8H2,1-2H3,(H2,20,21,22)",IENZQIKPVFGBNW-UHFFFAOYSA-N,COC1=CC2=C(C=C1OC)C(=NC(=N2)N3CCN(CC3)C(=O)C4=CC=CO4)N,-5.09,0.0,1,G1
C-2479,"dibenz[a,h]acridine",InChI=1S/C21H13N/c1-3-7-17-14(5-1)11-12-20-19(17)13-16-10-9-15-6-2-4-8-18(15)21(16)22-20/h1-13H,JNCSIWAONQTVCF-UHFFFAOYSA-N,C1=CC2=C(C=C1)C3=CC4=C(N=C3C=C2)C5=C(C=CC=C5)C=C4,-6.24,0.0,1,G1
C-2480,"2-sulfamoyl-4-methyl-5-(4-tolylsulfonylimido)-1,3,4-thiadiazoline; 5-(4-methylbenzenesulfonylimido)-4-methyl-delta2-1,3,4-thiadiazoline-2-sulfonamide","InChI=1S/C10H12N4O4S3/c1-7-3-5-8(6-4-7)21(17,18)13-9-14(2)12-10(19-9)20(11,15)16/h3-6H,1-2H3,(H2,11,15,16)",JGNXJEMYLRMWGB-UHFFFAOYSA-N,CN1N=C(SC1=N[S](=O)(=O)C2=CC=C(C)C=C2)[S](N)(=O)=O,-2.84,0.0,1,G1