ID,Name,InChI,InChIKey,SMILES,Solubility,SD,Occurrences,Group
E-549,nifuroxime,"InChI=1S/C5H4N2O4/c8-6-3-4-1-2-5(11-4)7(9)10/h1-3,8H",PTBKFATYSVLSSD-UHFFFAOYSA-N,o1c(N(=O)(=O))ccc1C=NO,-2.19,0.0,1,G1
E-550,dioxacarb,"InChI=1S/C11H13NO4/c1-12-11(13)16-9-5-3-2-4-8(9)10-14-6-7-15-10/h2-5,10H,6-7H2,1H3,(H,12,13)",SDKQRNRRDYRQKY-UHFFFAOYSA-N,CNC(=O)Oc1ccccc1C2OCCO2,-1.57,0.0,1,G1
E-553,benznidazole,"InChI=1S/C12H12N4O3/c17-11(14-8-10-4-2-1-3-5-10)9-15-7-6-13-12(15)16(18)19/h1-7H,8-9H2,(H,14,17)",CULUWZNBISUWAS-UHFFFAOYSA-N,c1ccccc1CNC(=O)CN2C(N(=O)=O)=NC=C2,-2.81,0.0,1,G1
E-554,fenbufen,"InChI=1S/C16H14O3/c17-15(10-11-16(18)19)14-8-6-13(7-9-14)12-4-2-1-3-5-12/h1-9H,10-11H2,(H,18,19)",ZPAKPRAICRBAOD-UHFFFAOYSA-N,c1ccccc1c2ccc(C(=O)CCC(=O)O)cc2,-5.06,0.0,1,G1
E-556,tetroxoprim,"InChI=1S/C16H22N4O4/c1-21-4-5-24-14-12(22-2)7-10(8-13(14)23-3)6-11-9-19-16(18)20-15(11)17/h7-9H,4-6H2,1-3H3,(H4,17,18,19,20)",WSWJIZXMAUYHOE-UHFFFAOYSA-N,n1c(N)nc(N)c(Cc2cc(OC)c(OCCOC)c(OC)c2)c1,-2.1,0.0,1,G1
E-557,sufentanil,"InChI=1S/C22H30N2O2S/c1-3-21(25)24(19-8-5-4-6-9-19)22(18-26-2)12-15-23(16-13-22)14-11-20-10-7-17-27-20/h4-10,17H,3,11-16,18H2,1-2H3",GGCSSNBKKAUURC-UHFFFAOYSA-N,C1CN(CCC2=CC=CS2)CCC1(COC)N(C(=O)CC)c3ccccc3,-3.71,0.0,1,G1
E-558,flutriafol,"InChI=1S/C16H13F2N3O/c17-13-7-5-12(6-8-13)16(22,9-21-11-19-10-20-21)14-3-1-2-4-15(14)18/h1-8,10-11,22H,9H2",JWUCHKBSVLQQCO-UHFFFAOYSA-N,n1cncn1CC(O)(c2ccc(F)cc2)c3ccccc3F,-3.37,0.0,1,G1
E-559,5-fluorouracil,"InChI=1S/C4H3FN2O2/c5-2-1-6-4(9)7-3(2)8/h1H,(H2,6,7,8,9)",GHASVSINZRGABV-UHFFFAOYSA-N,N1C(=O)NC(=O)C(F)=C1,-1.07,0.015000000000000013,2,G3
E-560,methyl_hydrazine,"InChI=1S/CH6N2/c1-3-2/h3H,2H2,1H3",HDZGCSFEDULWCS-UHFFFAOYSA-N,CNN,1.34,0.0,1,G1
E-561,5-methyluracil,"InChI=1S/C5H6N2O2/c1-3-2-6-5(9)7-4(3)8/h2H,1H3,(H2,6,7,8,9)",RWQNBRDOKXIBIV-UHFFFAOYSA-N,C1=C(C)C(=O)NC(=O)N1,-1.52,0.007000000000000006,2,G3
E-562,uracil,"InChI=1S/C4H4N2O2/c7-3-1-2-5-4(8)6-3/h1-2H,(H2,5,6,7,8)",ISAKRJDGNUQOIC-UHFFFAOYSA-N,C1=CC(=O)NC(=O)N1,-1.48,0.010000000000000009,2,G3
E-563,2-ethyl-2-phenylgluterimide,"InChI=1S/C13H15NO2/c1-2-13(10-6-4-3-5-7-10)9-8-11(15)14-12(13)16/h3-7H,2,8-9H2,1H3,(H,14,15,16)",JMBQKKAJIKAWKF-UHFFFAOYSA-N,CCC1(CCC(=O)NC1=O)c2ccccc2,-2.34,0.0,1,G1
E-564,N-nitrosopiperidine,InChI=1S/C5H10N2O/c8-6-7-4-2-1-3-5-7/h1-5H2,UWSDONTXWQOZFN-UHFFFAOYSA-N,O=NN(CCCC1)C1,-0.17,0.0,1,G1
E-565,azobenzene,InChI=1S/C12H10N2/c1-3-7-11(8-4-1)13-14-12-9-5-2-6-10-12/h1-10H,DMLAVOWQYNRWNQ-UHFFFAOYSA-N,N(=Nc(cccc1)c1)c(cccc2)c2,-4.45,0.0,1,G1
E-566,N-methylmorpholine,"InChI=1S/C5H11NO/c1-6-2-4-7-5-3-6/h2-5H2,1H3",SJRJJKPEHAURKC-UHFFFAOYSA-N,O(CCN(C1)C)C1,1.0,0.0,1,G1
E-567,piperidine,"InChI=1S/C5H11N/c1-2-4-6-5-3-1/h6H,1-5H2",NQRYJNQNLNOLGT-UHFFFAOYSA-N,N(CCCC1)C1,1.07,0.0,1,G1
E-568,morpholine,"InChI=1S/C4H9NO/c1-3-6-4-2-5-1/h5H,1-4H2",YNAVUWVOSKDBBP-UHFFFAOYSA-N,O(CCNC1)C1,1.06,0.0,1,G1
E-569,pyrrolidine,"InChI=1S/C4H9N/c1-2-4-5-3-1/h5H,1-4H2",RWRDLPDLKQPQOW-UHFFFAOYSA-N,N(CCC1)C1,1.15,0.0,1,G1
E-570,2-cyanoguanidine,"InChI=1S/C2H4N4/c3-1-6-2(4)5/h(H4,4,5,6)",QGBSISYHAICWAH-UHFFFAOYSA-N,NC(=NC(#N))N,-0.31,0.0,1,G1
E-571,1-methyluracil,"InChI=1S/C5H6N2O2/c1-7-3-2-4(8)6-5(7)9/h2-3H,1H3,(H,6,8,9)",XBCXJKGHPABGSD-UHFFFAOYSA-N,C1=CC(=O)NC(=O)N1C,-0.8,0.0,1,G1
E-572,pyrrolidone,"InChI=1S/C4H7NO/c6-4-2-1-3-5-4/h1-3H2,(H,5,6)",HNJBEVLQSNELDL-UHFFFAOYSA-N,O=C(NCC1)C1,1.07,0.0,1,G1
E-573,N-methylpiperidine,"InChI=1S/C6H13N/c1-7-5-3-2-4-6-7/h2-6H2,1H3",PAMIQIKDUOTOBW-UHFFFAOYSA-N,N(CCCC1)(C1)C,0.23,0.0,1,G1
E-574,N-methyl-2-pyridone,"InChI=1S/C6H7NO/c1-7-5-3-2-4-6(7)8/h2-5H,1H3",DVVGIUUJYPYENY-UHFFFAOYSA-N,CN1C(=O)C=CC=C1,0.96,0.0,1,G1
E-575,acrylonitrile,"InChI=1S/C3H3N/c1-2-3-4/h2H,1H2",NLHHRLWOUZZQLW-UHFFFAOYSA-N,C=CC#N,0.15,0.0,1,G1
E-576,benzonitrile,InChI=1S/C7H5N/c8-6-7-4-2-1-3-5-7/h1-5H,JFDZBHWFFUWGJE-UHFFFAOYSA-N,c1ccccc1C#N,-1.0,0.356,2,G3
E-577,phthalonitrile,InChI=1S/C8H4N2/c9-5-7-3-1-2-4-8(7)6-10/h1-4H,XQZYPMVTSDWCCE-UHFFFAOYSA-N,N#Cc(c(C#N)ccc1)c1,-2.38,0.06555,2,G3
E-578,hydrazobenzene,"InChI=1S/C12H12N2/c1-3-7-11(8-4-1)13-14-12-9-5-2-6-10-12/h1-10,13-14H",YBQZXXMEJHZYMB-UHFFFAOYSA-N,N(Nc(cccc1)c1)c(cccc2)c2,-2.92,0.0,1,G1
E-579,4-aminophenol,"InChI=1S/C6H7NO/c7-5-1-3-6(8)4-2-5/h1-4,8H,7H2",PLIKAWJENQZMHA-UHFFFAOYSA-N,Oc(ccc(N)c1)c1,-0.8,0.017000000000000015,2,G3
E-580,2-aminobenzoic_acid,"InChI=1S/C7H7NO2/c8-6-4-2-1-3-5(6)7(9)10/h1-4H,8H2,(H,9,10)",RWZYAGGXGHYGMB-UHFFFAOYSA-N,c1cccc(N)c1C(=O)O,-1.52,0.03650000000000009,2,G3
E-582,O-methyl_carbamate,"InChI=1S/C2H5NO2/c1-5-2(3)4/h1H3,(H2,3,4)",GTCAXTIRRLKXRU-UHFFFAOYSA-N,O=C(OC)N,0.97,0.0,1,G1
E-583,O-butyl_carbamate,"InChI=1S/C5H11NO2/c1-2-3-4-8-5(6)7/h2-4H2,1H3,(H2,6,7)",SKKTUOZKZKCGTB-UHFFFAOYSA-N,O=C(OCCCC)N,-0.66,0.0,1,G1
E-584,O-isobutyl_carbamate,"InChI=1S/C5H11NO2/c1-4(2)3-8-5(6)7/h4H,3H2,1-2H3,(H2,6,7)",BRUZQRBVNRKLJG-UHFFFAOYSA-N,O=C(OCC(C)C)N,-0.3,0.0,1,G1
E-585,O-t-butyl_carbamate,"InChI=1S/C5H11NO2/c1-5(2,3)8-4(6)7/h1-3H3,(H2,6,7)",LFKDJXLFVYVEFG-UHFFFAOYSA-N,O=C(OC(C)(C)C)N,0.1,0.0,1,G1
E-586,O-benzyl_carbamate,"InChI=1S/C8H9NO2/c9-8(10)11-6-7-4-2-1-3-5-7/h1-5H,6H2,(H2,9,10)",PUJDIJCNWFYVJX-UHFFFAOYSA-N,O=C(OCc1ccccc1)N,-0.35,0.0,1,G1
E-587,urea,"InChI=1S/CH4N2O/c2-1(3)4/h(H4,2,3,4)",XSQUKJJJFZCRTK-UHFFFAOYSA-N,NC(=O)N,0.96,0.0,1,G1
E-588,hydroxyurea,"InChI=1S/CH4N2O2/c2-1(4)3-5/h5H,(H3,2,3,4)",VSNHCAURESNICA-UHFFFAOYSA-N,O=C(N)NO,1.12,0.0,1,G1
E-589,1-nitroso-1-methylurea,"InChI=1S/C2H5N3O2/c1-5(4-7)2(3)6/h1H3,(H2,3,6)",ZRKWMRDKSOPRRS-UHFFFAOYSA-N,O=C(N)N(C)N=O,-0.85,0.0050000000000000044,2,G3
E-590,1-nitroso-1-ethylurea,"InChI=1S/C3H7N3O2/c1-2-6(5-8)3(4)7/h2H2,1H3,(H2,4,7)",FUSGACRLAFQQRL-UHFFFAOYSA-N,O=C(N)N(CC)N=O,-0.96,0.0,1,G1
E-591,tetramethylurea,InChI=1S/C5H12N2O/c1-6(2)5(8)7(3)4/h1-4H3,AVQQQNCBBIEMEU-UHFFFAOYSA-N,O=C(N(C)C)N(C)C,0.94,0.0,1,G1
E-592,benzylurea,"InChI=1S/C8H10N2O/c9-8(11)10-6-7-4-2-1-3-5-7/h1-5H,6H2,(H3,9,10,11)",RJNJWHFSKNJCTB-UHFFFAOYSA-N,NC(=O)NCc1ccccc1,-0.95,0.0,1,G1
E-593,acetamide,"InChI=1S/C2H5NO/c1-2(3)4/h1H3,(H2,3,4)",DLFVBJFMPXGRIB-UHFFFAOYSA-N,CC(=O)N,1.58,0.0,1,G1
E-595,benzamide,"InChI=1S/C7H7NO/c8-7(9)6-4-2-1-3-5-6/h1-5H,(H2,8,9)",KXDAEFPNCMNJSK-UHFFFAOYSA-N,O=C(N)c(cccc1)c1,-0.96,0.0050000000000000044,2,G3
E-597,acetanilide,"InChI=1S/C8H9NO/c1-7(10)9-8-5-3-2-4-6-8/h2-6H,1H3,(H,9,10)",FZERHIULMFGESH-UHFFFAOYSA-N,O=C(Nc(cccc1)c1)C,-1.33,0.04109609335312645,3,G5
E-599,propoxur,"InChI=1S/C11H15NO3/c1-8(2)14-9-6-4-5-7-10(9)15-11(13)12-3/h4-8H,1-3H3,(H,12,13)",ISRUGXGCCGIOQO-UHFFFAOYSA-N,CNC(=O)Oc1ccccc1OC(C)C,-2.05,0.0,1,G1
E-602,1-nitropropane,"InChI=1S/C3H7NO2/c1-2-3-4(5)6/h2-3H2,1H3",JSZOAYXJRCEYSX-UHFFFAOYSA-N,CCCN(=O)=O,-0.8,0.013000000000000012,2,G3
E-603,nitrobenzene,InChI=1S/C6H5NO2/c8-7(9)6-4-2-1-3-5-6/h1-5H,LQNUZADURLCDLV-UHFFFAOYSA-N,O=N(=O)c(cccc1)c1,-1.8,0.024494897427831803,3,G5
E-604,2-nitrotoluene,"InChI=1S/C7H7NO2/c1-6-4-2-3-5-7(6)8(9)10/h2-5H,1H3",PLAZTCDQAHEYBI-UHFFFAOYSA-N,O=N(=O)c(c(ccc1)C)c1,-2.33,0.010000000000000009,2,G3
E-606,4-nitrotoluene,"InChI=1S/C7H7NO2/c1-6-2-4-7(5-3-6)8(9)10/h2-5H,1H3",ZPTVNYMJQHSSEA-UHFFFAOYSA-N,O=N(=O)c(ccc(c1)C)c1,-2.49,0.0,1,G1
E-608,2-nitrophenol,"InChI=1S/C6H5NO3/c8-6-4-2-1-3-5(6)7(9)10/h1-4,8H",IQUPABOKLQSFBK-UHFFFAOYSA-N,O=N(=O)c(c(O)ccc1)c1,-1.74,0.0050000000000000044,2,G3
E-610,dinoseb,"InChI=1S/C10H12N2O5/c1-3-6(2)8-4-7(11(14)15)5-9(10(8)13)12(16)17/h4-6,13H,3H2,1-2H3",OWZPCEFYPSAJFR-UHFFFAOYSA-N,O=N(=O)c(cc(N(=O)=O)c(O)c1C(CC)C)c1,-3.38,0.14500000000000002,2,G3
E-611,3-nitrobenzoic_acid,"InChI=1S/C7H5NO4/c9-7(10)5-2-1-3-6(4-5)8(11)12/h1-4H,(H,9,10)",AFPHTEQTJZKQAQ-UHFFFAOYSA-N,O=C(O)c(cccc1N(=O)=O)c1,-1.68,0.04055449009254915,3,G5
E-612,2-nitroanisole,"InChI=1S/C7H7NO3/c1-11-7-5-3-2-4-6(7)8(9)10/h2-5H,1H3",CFBYEGUGFPZCNF-UHFFFAOYSA-N,O=N(=O)c(c(OC)ccc1)c1,-1.96,0.0,1,G1
E-613,4-nitroanisole,"InChI=1S/C7H7NO3/c1-11-7-4-2-6(3-5-7)8(9)10/h2-5H,1H3",BNUHAJGCKIQFGE-UHFFFAOYSA-N,O=N(=O)c(ccc(OC)c1)c1,-2.41,0.0,1,G1
E-616,quanidinoacetic_acid,"InChI=1S/C3H7N3O2/c4-3(5)6-1-2(7)8/h1H2,(H,7,8)(H4,4,5,6)",BPMFZUMJYQTVII-UHFFFAOYSA-N,NC(=N)NCC(=O)O,-1.51,0.0,1,G1
E-617,4-chloroaniline,"InChI=1S/C6H6ClN/c7-5-1-3-6(8)4-2-5/h1-4H,8H2",QSNSCYSYFYORTR-UHFFFAOYSA-N,Nc(ccc(c1)Cl)c1,-1.66,0.07641262257565101,3,G5
E-618,2-chloroaniline,"InChI=1S/C6H6ClN/c7-5-3-1-2-4-6(5)8/h1-4H,8H2",AKCRQHGQIJBRMN-UHFFFAOYSA-N,Nc(c(ccc1)Cl)c1,-1.52,0.16300000000000003,2,G3
E-619,"3,4-dichloroaniline","InChI=1S/C6H5Cl2N/c7-5-2-1-4(9)3-6(5)8/h1-3H,9H2",SDYWXFYBZPNOFX-UHFFFAOYSA-N,Nc(ccc(c1Cl)Cl)c1,-3.24,0.0,1,G1
E-620,3-trifluoromethylaniline,"InChI=1S/C7H6F3N/c8-7(9,10)5-2-1-3-6(11)4-5/h1-4H,11H2",VIUDTWATMPPKEL-UHFFFAOYSA-N,FC(F)(F)c(cccc1N)c1,-1.47,0.0,1,G1
E-621,"3,3'-dichlorobenzidine","InChI=1S/C12H10Cl2N2/c13-9-5-7(1-3-11(9)15)8-2-4-12(16)10(14)6-8/h1-6H,15-16H2",HUWXDEQWWKGHRV-UHFFFAOYSA-N,Nc(c(cc(c(ccc(N)c1Cl)c1)c2)Cl)c2,-4.92,0.0,1,G1
E-624,trietazine,"InChI=1S/C9H16ClN5/c1-4-11-8-12-7(10)13-9(14-8)15(5-2)6-3/h4-6H2,1-3H3,(H,11,12,13,14)",HFBWPRKWDIRYNX-UHFFFAOYSA-N,n(c(nc(n1)N(CC)CC)NCC)c1Cl,-4.06,0.0,1,G1
E-625,cyanazine,"InChI=1S/C9H13ClN6/c1-4-12-7-13-6(10)14-8(15-7)16-9(2,3)5-11/h4H2,1-3H3,(H2,12,13,14,15,16)",MZZBPDKVEFVLFF-UHFFFAOYSA-N,CCNc1nc(Cl)nc(NC(C)(C)C#N)n1,-3.15,0.0,1,G1
E-626,propazine,"InChI=1S/C9H16ClN5/c1-5(2)11-8-13-7(10)14-9(15-8)12-6(3)4/h5-6H,1-4H3,(H2,11,12,13,14,15)",WJNRPILHGGKWCK-UHFFFAOYSA-N,CC(C)Nc1nc(Cl)nc(NC(C)C)n1,-4.43,0.015000000000000124,2,G3
E-627,chloropham,"InChI=1S/C10H12ClNO2/c1-7(2)14-10(13)12-9-5-3-4-8(11)6-9/h3-7H,1-2H3,(H,12,13)",CWJSHJJYOPWUGX-UHFFFAOYSA-N,CC(C)OC(=O)Nc1cccc(Cl)c1,-3.38,0.0050000000000001155,2,G3
E-629,monuron,"InChI=1S/C9H11ClN2O/c1-12(2)9(13)11-8-5-3-7(10)4-6-8/h3-6H,1-2H3,(H,11,13)",BMLIZLVNXIYGCK-UHFFFAOYSA-N,O=C(N(C)C)Nc(ccc(c1)Cl)c1,-2.89,0.02300000000000013,2,G3
E-630,linuron,"InChI=1S/C9H10Cl2N2O2/c1-13(15-2)9(14)12-6-3-4-7(10)8(11)5-6/h3-5H,1-2H3,(H,12,14)",XKJMBINCVNINCA-UHFFFAOYSA-N,O=C(N(OC)C)Nc(ccc(c1Cl)Cl)c1,-3.52,0.03600000000000003,2,G3
E-631,fluometuron,"InChI=1S/C10H11F3N2O/c1-15(2)9(16)14-8-5-3-4-7(6-8)10(11,12)13/h3-6H,1-2H3,(H,14,16)",RZILCCPWPBTYDO-UHFFFAOYSA-N,O=C(N(C)C)Nc(cccc1C(F)(F)F)c1,-3.43,0.06018490028422605,3,G5
E-632,propachlor,"InChI=1S/C11H14ClNO/c1-9(2)13(11(14)8-12)10-6-4-3-5-7-10/h3-7,9H,8H2,1-2H3",MFOUDYKPLGXPGO-UHFFFAOYSA-N,CC(C)N(C(=O)CCl)c1ccccc1,-2.48,0.26,2,G3
E-634,terbacil,"InChI=1S/C9H13ClN2O2/c1-5-6(10)7(13)12(8(14)11-5)9(2,3)4/h1-4H3,(H,11,14)",NBQCNZYJJMBDKY-UHFFFAOYSA-N,CC1=C(Cl)C(=O)N(C(C)(C)C)C(=O)N1,-2.48,0.0050000000000001155,2,G3
E-635,chloroxuron,"InChI=1S/C15H15ClN2O2/c1-18(2)15(19)17-12-5-9-14(10-6-12)20-13-7-3-11(16)4-8-13/h3-10H,1-2H3,(H,17,19)",IVUXTESCPZUGJC-UHFFFAOYSA-N,CN(C)C(=O)Nc2ccc(Oc1ccc(Cl)cc1)cc2,-4.89,0.0,1,G1
E-636,nitrofen,InChI=1S/C12H7Cl2NO3/c13-8-1-6-12(11(14)7-8)18-10-4-2-9(3-5-10)15(16)17/h1-7H,XITQUSLLOSKDTB-UHFFFAOYSA-N,O=N(=O)c(ccc(Oc(c(cc(c1)Cl)Cl)c1)c2)c2,-5.46,0.0,1,G1
E-638,triadimefon,"InChI=1S/C14H16ClN3O2/c1-14(2,3)12(19)13(18-9-16-8-17-18)20-11-6-4-10(15)5-7-11/h4-9,13H,1-3H3",WURBVZBTWMNKQT-UHFFFAOYSA-N,CC(C)(C)C(=O)C(Oc1ccc(Cl)cc1)n2cncn2,-3.61,0.0,1,G1
E-639,butanethiol,"InChI=1S/C4H10S/c1-2-3-4-5/h5H,2-4H2,1H3",WQAQPCDUOCURKW-UHFFFAOYSA-N,CCCCS,-2.18,0.0,1,G1
E-640,thiophenol,"InChI=1S/C6H6S/c7-6-4-2-1-3-5-6/h1-5,7H",RMVRSNDYEFQCLF-UHFFFAOYSA-N,c1ccccc1S,-2.12,0.0,1,G1
E-641,ametryn,"InChI=1S/C9H17N5S/c1-5-10-7-12-8(11-6(2)3)14-9(13-7)15-4/h6H,5H2,1-4H3,(H2,10,11,12,13,14)",RQVYBGPQFYCBGX-UHFFFAOYSA-N,CCNc1nc(NC(C)C)nc(SC)n1,-3.04,0.0,1,G1
E-643,ethylenethiourea,"InChI=1S/C3H6N2S/c6-3-4-1-2-5-3/h1-2H2,(H2,4,5,6)",PDQAZBWRQCGBEV-UHFFFAOYSA-N,N(C(=S)NC1)C1,-0.71,0.0,1,G1
E-644,"1,3-diethylthiourea","InChI=1S/C5H12N2S/c1-3-6-5(8)7-4-2/h3-4H2,1-2H3,(H2,6,7,8)",FLVIGYVXZHLUHP-UHFFFAOYSA-N,CCNC(=S)NCC,-1.46,0.0,1,G1
E-646,2-thiouracil,"InChI=1S/C4H4N2OS/c7-3-1-2-5-4(8)6-3/h1-2H,(H2,5,6,7,8)",ZEMGGZBWXRYJHK-UHFFFAOYSA-N,n(ccc(n1)O)c1S,-2.26,0.006500000000000172,2,G3
E-648,4-toluenesulfonamide,"InChI=1S/C7H9NO2S/c1-6-2-4-7(5-3-6)11(8,9)10/h2-5H,1H3,(H2,8,9,10)",LMYRWZFENFIFIT-UHFFFAOYSA-N,O=S(=O)(N)c(ccc(c1)C)c1,-1.74,0.0,1,G1
E-649,2-toluenesulfonamide,"InChI=1S/C7H9NO2S/c1-6-4-2-3-5-7(6)11(8,9)10/h2-5H,1H3,(H2,8,9,10)",YCMLQMDWSXFTIF-UHFFFAOYSA-N,O=S(=O)(N)c(c(ccc1)C)c1,-2.02,0.0,1,G1
E-651,triethyl_phosphate,"InChI=1S/C6H15O4P/c1-4-8-11(7,9-5-2)10-6-3/h4-6H2,1-3H3",DQWPFSLDHJDLRL-UHFFFAOYSA-N,O=P(OCC)(OCC)OCC,0.43,0.0,1,G1
E-652,tricresyl_phosphate,"InChI=1S/C21H21O7P/c1-13-7-8-17(23)12-20(13)27-29(25,26-19-10-9-16(22)11-15(19)3)28-21-14(2)5-4-6-18(21)24/h4-12,22-24H,1-3H3",JVHMUUUYNIPCPF-UHFFFAOYSA-N,O=P(Oc1ccc(O)cc1C)(Oc2cc(O)ccc2C)Oc3c(O)cccc3C,-6.7,0.0,1,G1
E-654,disulfoton,"InChI=1S/C8H19O2PS3/c1-4-9-11(12,10-5-2)14-8-7-13-6-3/h4-8H2,1-3H3",DOFZAZXDOSGAJZ-UHFFFAOYSA-N,CCOP(=S)(OCC)SCCSCC,-4.23,0.0,1,G1
E-655,prometryn,"InChI=1S/C11H12NO4PS2/c1-15-17(18,16-2)19-7-12-10(13)8-5-3-4-6-9(8)11(12)14/h3-6H,7H2,1-2H3",LMNZTLDVJIUSHT-UHFFFAOYSA-N,COP(=S)(OC)SCN2C(=O)c1ccccc1C2=O,-4.1,0.010000000000000231,2,G3
E-657,parathion_methyl,"InChI=1S/C8H10NO5PS/c1-12-15(16,13-2)14-8-5-3-7(4-6-8)9(10)11/h3-6H,1-2H3",RLBIQVVOMOPOHC-UHFFFAOYSA-N,COP(=S)(OC)Oc1ccc(cc1)N(=O)=O,-3.68,0.08199999999999985,2,G3
E-660,DEF,"InChI=1S/C12H27OPS3/c1-4-7-10-15-14(13,16-11-8-5-2)17-12-9-6-3/h4-12H2,1-3H3",ZOKXUAHZSKEQSS-UHFFFAOYSA-N,O=P(SCCCC)(SCCCC)SCCCC,-5.14,0.2469999999999999,2,G3
E-661,bromophos,"InChI=1S/C8H8BrCl2O3PS/c1-12-15(16,13-2)14-8-4-6(10)5(9)3-7(8)11/h3-4H,1-2H3",NYQDCVLCJXRDSK-UHFFFAOYSA-N,COP(=S)(OC)Oc1cc(Cl)c(Br)cc1Cl,-6.09,1.065,2,G2
E-665,hyodeoxycholic_acid,"InChI=1S/C24H40O4/c1-14(4-7-21(27)28)17-5-6-18-22-19(9-11-24(17,18)3)23(2)10-8-16(25)12-15(23)13-20(22)26/h14-20,22,25-26H,4-13H2,1-3H3,(H,27,28)",RUDATBOHQWOJDD-UHFFFAOYSA-N,C1C(O)CC2CC(O)C3C4CCC(C(C)CCC(=O)O)C4(C)CCC3C2(C)C1,-3.82,0.40274061131204547,3,G5
E-667,triazolam,"InChI=1S/C17H12Cl2N4/c1-10-21-22-16-9-20-17(12-4-2-3-5-14(12)19)13-8-11(18)6-7-15(13)23(10)16/h2-8H,9H2,1H3",JOFWLTCLBGQGBO-UHFFFAOYSA-N,c1cc2N3C(C)=NN=C3CN=C(c4c(Cl)cccc4)c2cc1Cl,-4.08,0.0,1,G1
E-669,2-aminothiazole,"InChI=1S/C3H4N2S/c4-3-5-1-2-6-3/h1-2H,(H2,4,5)",RAIPHJJURHTUIC-UHFFFAOYSA-N,s1c(N)ncc1,-0.36,0.0,1,G1
E-670,1-naphthyl_isothiocyanate,InChI=1S/C11H7NS/c13-8-12-11-7-3-5-9-4-1-2-6-10(9)11/h1-7H,JBDOSUUXMYMWQH-UHFFFAOYSA-N,N(c(c(c(ccc1)cc2)c1)c2)=C=S,-4.6,0.0,1,G1
E-671,3-chloropropionitrile,InChI=1S/C3H4ClN/c4-2-1-3-5/h1-2H2,GNHMRTZZNHZDDM-UHFFFAOYSA-N,N#CCCCl,-0.29,0.0,1,G1
E-672,3-pentenenitrile,"InChI=1S/C5H7N/c1-2-3-4-5-6/h2-3H,4H2,1H3",UVKXJAUUKPDDNW-UHFFFAOYSA-N,N#CCC=CC,-0.96,0.0,1,G1
E-673,4-aminoacetanilide,"InChI=1S/C8H10N2O/c1-6(11)10-8-4-2-7(9)3-5-8/h2-5H,9H2,1H3,(H,10,11)",CHMBIJAOCISYEW-UHFFFAOYSA-N,O=C(Nc(ccc(N)c1)c1)C,-0.98,0.0,1,G1
E-674,4-bromoacetanilide,"InChI=1S/C8H8BrNO/c1-6(11)10-8-4-2-7(9)3-5-8/h2-5H,1H3,(H,10,11)",MSLICLMCQYQNPK-UHFFFAOYSA-N,O=C(Nc(ccc(c1)Br)c1)C,-3.08,0.08499999999999996,2,G3
E-675,4-fluoroacetanilide,"InChI=1S/C8H8FNO/c1-6(11)10-8-4-2-7(9)3-5-8/h2-5H,1H3,(H,10,11)",JHEFOJNPLXSWNZ-UHFFFAOYSA-N,O=C(Nc(ccc(c1)F)c1)C,-1.78,0.08499999999999996,2,G3
E-677,4-iodoacetanilide,"InChI=1S/C8H8INO/c1-6(11)10-8-4-2-7(9)3-5-8/h2-5H,1H3,(H,10,11)",SIULLDWIXYYVCU-UHFFFAOYSA-N,O=C(Nc(ccc(c1)I)c1)C,-3.25,0.2350000000000001,2,G3
E-678,4-methoxyacetanilide,"InChI=1S/C9H11NO2/c1-7(11)10-8-3-5-9(12-2)6-4-8/h3-6H,1-2H3,(H,10,11)",XVAIDCNLVLTVFM-UHFFFAOYSA-N,O=C(Nc(ccc(c1)OC)c1)C,-1.3,0.13,2,G3
E-680,dibucaine,"InChI=1S/C20H29N3O2/c1-4-7-14-25-19-15-17(16-10-8-9-11-18(16)22-19)20(24)21-12-13-23(5-2)6-3/h8-11,15H,4-7,12-14H2,1-3H3,(H,21,24)",PUFQVTATUTYEAL-UHFFFAOYSA-N,CCCCOc2cc(C(=O)NCCN(CC)CC)c1ccccc1n2,-3.7,0.472977979285388,3,G5
E-681,doxepin,"InChI=1S/C19H21NO/c1-20(2)13-7-11-17-16-9-4-3-8-15(16)14-21-19-12-6-5-10-18(17)19/h3-6,8-12H,7,13-14H2,1-2H3",ODQWQRRAPPTVAG-UHFFFAOYSA-N,CN(C)CCC=C2c1ccccc1COc3ccccc23,-3.4,0.0,1,G1
E-682,fluotrimazole,"InChI=1S/C22H16F3N3/c23-22(24,25)20-13-7-12-19(14-20)21(28-16-26-15-27-28,17-8-3-1-4-9-17)18-10-5-2-6-11-18/h1-16H",LXMQMMSGERCRSU-UHFFFAOYSA-N,FC(F)(F)c(cccc1C(n(ncn2)c2)(c(cccc3)c3)c(cccc4)c4)c1,-8.4,0.0,1,G1
E-683,indoline,"InChI=1S/C8H9N/c1-2-4-8-7(3-1)5-6-9-8/h1-4,9H,5-6H2",LPAGFVYQRIESJQ-UHFFFAOYSA-N,N(c(c(ccc1)C2)c1)C2,-1.04,0.0,1,G1
E-684,isonoruron,"InChI=1S/C13H22N2O/c1-15(2)13(16)14-12-7-8-6-11(12)10-5-3-4-9(8)10/h8-12H,3-7H2,1-2H3,(H,14,16)",YGLMVCVJLXREAK-UHFFFAOYSA-N,O=C(NC1C2C3CCCC3C(C1)C2)N(C)C,-3.01,0.08000000000000007,2,G3
E-686,nalidixic_acid,"InChI=1S/C12H12N2O3/c1-3-14-6-9(12(16)17)10(15)8-5-4-7(2)13-11(8)14/h4-6H,3H2,1-2H3,(H,16,17)",MHWLWQUZZRMNGJ-UHFFFAOYSA-N,Cc1ccc2C(=O)C(C(=O)O)=CN(CC)c2n1,-3.37,0.11999999999999988,2,G3
E-687,pipedemic_acid,"InChI=1S/C14H17N5O3/c1-2-18-8-10(13(21)22)11(20)9-7-16-14(17-12(9)18)19-5-3-15-4-6-19/h7-8,15H,2-6H2,1H3,(H,21,22)",JOHZPMXAZQZXHR-UHFFFAOYSA-N,C1CNCCN1c2ncc3C(=O)C(C(=O)O)=CN(CC)c3n2,-2.98,0.0,1,G1
E-689,norethisterone_acetate,"InChI=1S/C22H28O3/c1-4-22(25-14(2)23)12-10-20-19-7-5-15-13-16(24)6-8-17(15)18(19)9-11-21(20,22)3/h1,13,17-20H,5-12H2,2-3H3",IMONTRJLAWHYGT-UHFFFAOYSA-N,CC(=O)OC3(CCC4C2CCC1=CC(=O)CCC1C2CCC34C)C#C,-4.79,0.040000000000000036,2,G3
E-691,ioxynil,"InChI=1S/C7H3I2NO/c8-5-1-4(3-10)2-6(9)7(5)11/h1-2,11H",NRXQIUSYPAHGNM-UHFFFAOYSA-N,Oc1c(I)cc(C#N)cc1I,-3.61,0.16950980961453394,3,G5
E-695,chloramben,"InChI=1S/C7H5Cl2NO2/c8-3-1-4(7(11)12)6(9)5(10)2-3/h1-2H,10H2,(H,11,12)",HSSBORCLYSCBJR-UHFFFAOYSA-N,O=C(O)c(c(c(N)cc1Cl)Cl)c1,-2.47,0.385,2,G3
E-697,tetracycline,"InChI=1S/C22H24N2O8/c1-21(31)8-5-4-6-11(25)12(8)16(26)13-9(21)7-10-15(24(2)3)17(27)14(20(23)30)19(29)22(10,32)18(13)28/h4-6,9-10,15,25,27-28,31-32H,7H2,1-3H3,(H2,23,30)",OFVLGDICTFRJMM-UHFFFAOYSA-N,CN(C)C2C1CC4C(=C(O)C1(O)C(=O)C(=C2O)C(N)=O)C(=O)c3c(O)cccc3C4(C)O,-3.12,0.07999999999999985,2,G3
E-698,oxytetracycline,"InChI=1S/C22H24N2O9/c1-21(32)7-5-4-6-8(25)9(7)15(26)10-12(21)17(28)13-14(24(2)3)16(27)11(20(23)31)19(30)22(13,33)18(10)29/h4-6,12-14,17,25,27-29,32-33H,1-3H3,(H2,23,31)",IWVCMVBTMGNXQD-UHFFFAOYSA-N,O=C(N)C(=C(O)C(N(C)C)C(C1(O)C(O)=C(C2C(O)(c(c3c(O)cc4)c4)C)C3=O)C2O)C1=O,-3.14,0.0,1,G1
E-700,diphenamid,"InChI=1S/C16H17NO/c1-17(2)16(18)15(13-9-5-3-6-10-13)14-11-7-4-8-12-14/h3-12,15H,1-2H3",QAHFOPIILNICLA-UHFFFAOYSA-N,CN(C)C(=O)C(c1ccccc1)c2ccccc2,-2.98,0.01472714802291636,3,G5
E-701,triallate,"InChI=1S/C10H16Cl3NOS/c1-6(2)14(7(3)4)10(15)16-5-8(11)9(12)13/h6-7H,5H2,1-4H3",MWBPRDONLNQCFV-UHFFFAOYSA-N,CC(C)N(C(C)C)C(=O)SCC(Cl)=C(Cl)Cl,-4.88,0.0,1,G1
E-704,methyl_nicotinate,"InChI=1S/C7H7NO2/c1-10-7(9)6-3-2-4-8-5-6/h2-5H,1H3",YNBADRVTZLEFNH-UHFFFAOYSA-N,O=C(OC)c(cccn1)c1,-0.46,0.0,1,G1
E-706,gamma-butyrolactone,InChI=1S/C4H6O2/c5-4-2-1-3-6-4/h1-3H2,YEJRWHAVMIAJKC-UHFFFAOYSA-N,O=C(OCC1)C1,1.07,0.0,1,G1
E-707,methyl_gallate,"InChI=1S/C8H8O5/c1-13-8(12)4-2-5(9)7(11)6(10)3-4/h2-3,9-11H,1H3",FBSFWRHWHYMIOG-UHFFFAOYSA-N,O=C(OC)c(cc(O)c(O)c1O)c1,-1.24,0.0,1,G1
E-708,methyl-4-hydroxybenzoate,"InChI=1S/C8H8O3/c1-11-8(10)6-2-4-7(9)5-3-6/h2-5,9H,1H3",LXCFILQKKLGQFO-UHFFFAOYSA-N,O=C(OC)c(ccc(O)c1)c1,-1.78,0.023499999999999965,2,G3
E-709,ethyl_cinnamate,"InChI=1S/C11H12O2/c1-2-13-11(12)9-8-10-6-4-3-5-7-10/h3-9H,2H2,1H3",KBEBGUQPQBELIU-UHFFFAOYSA-N,O=C(OCC)C=Cc(cccc1)c1,-3.0,0.0,1,G1
E-710,diethyl_succinate,"InChI=1S/C8H14O4/c1-3-11-7(9)5-6-8(10)12-4-2/h3-6H2,1-2H3",DKMROQRQHGEIOW-UHFFFAOYSA-N,O=C(OCC)CCC(=O)OCC,-0.96,0.0,1,G1
E-711,diallyl_phthalate,"InChI=1S/C14H14O4/c1-3-9-17-13(15)11-7-5-6-8-12(11)14(16)18-10-4-2/h3-8H,1-2,9-10H2",QUDWYFHPNIMBFC-UHFFFAOYSA-N,O=C(OCC=C)c(c(ccc1)C(=O)OCC=C)c1,-3.13,0.0,1,G1
E-712,butyl_benzoate,"InChI=1S/C11H14O2/c1-2-3-9-13-11(12)10-7-5-4-6-8-10/h4-8H,2-3,9H2,1H3",XSIFPSYPOVKYCO-UHFFFAOYSA-N,O=C(OCCCC)c(cccc1)c1,-3.48,0.0,1,G1
E-713,methyl-4-aminobenzoate,"InChI=1S/C8H9NO2/c1-11-8(10)6-2-4-7(9)5-3-6/h2-5H,9H2,1H3",LZXXNPOYQCLXRS-UHFFFAOYSA-N,O=C(OC)c(ccc(N)c1)c1,-1.59,0.21499999999999997,2,G3
E-714,hexyl-4-aminobenzoate,"InChI=1S/C13H19NO2/c1-2-3-4-5-10-16-13(15)11-6-8-12(14)9-7-11/h6-9H,2-5,10,14H2,1H3",UWIGKXXCHKVGHW-UHFFFAOYSA-N,CCCCCCOC(=O)c1ccc(N)cc1,-3.95,0.2799999999999998,2,G3
E-715,heptyl-4-aminobenzoate,"InChI=1S/C14H21NO2/c1-2-3-4-5-6-11-17-14(16)12-7-9-13(15)10-8-12/h7-10H,2-6,11,15H2,1H3",IAHJVNSZPMIREM-UHFFFAOYSA-N,CCCCCCCOC(=O)c1ccc(N)cc1,-4.6,0.27,2,G3