ID,Name,InChI,InChIKey,SMILES,Solubility,SD,Occurrences,Group
D-290,pirimiphos-methyl,"InChI=1S/C11H20N3O3PS/c1-6-14(7-2)11-12-9(3)8-10(13-11)17-18(19,15-4)16-5/h8H,6-7H2,1-5H3",QHOQHJPRIBSPCY-UHFFFAOYSA-N,CCN(CC)c1nc(C)cc(O[P](=S)(OC)OC)n1,-4.133,0.20865,2,G3
D-296,"azinphos-ethyl, o-analog","InChI=1S/C12H16N3O4PS/c1-3-18-20(17,19-4-2)21-9-15-12(16)10-7-5-6-8-11(10)13-14-15/h5-8H,3-4,9H2,1-2H3",ZADDJRKYRQDYKM-UHFFFAOYSA-N,CCO[P](=O)(OCC)SCN1N=Nc2ccccc2C1=O,-1.993,0.0,1,G1
D-297,profenofos,"InChI=1S/C11H15BrClO3PS/c1-3-7-18-17(14,15-4-2)16-11-6-5-9(12)8-10(11)13/h5-6,8H,3-4,7H2,1-2H3",QYMMJNLHFKGANY-UHFFFAOYSA-N,CCCS[P](=O)(OCC)Oc1ccc(Br)cc1Cl,-4.125,0.0,1,G1
D-299,bifenox,"InChI=1S/C14H9Cl2NO5/c1-21-14(18)10-7-9(3-4-12(10)17(19)20)22-13-5-2-8(15)6-11(13)16/h2-7H,1H3",SUSRORUBZHMPCO-UHFFFAOYSA-N,COC(=O)c1cc(Oc2ccc(Cl)cc2Cl)ccc1[N+]([O-])=O,-5.934,0.028000000000000025,2,G3
D-303,diclofop-methyl,"InChI=1S/C16H14Cl2O4/c1-10(16(19)20-2)21-12-4-6-13(7-5-12)22-15-8-3-11(17)9-14(15)18/h3-10H,1-2H3",BACHBFVBHLGWSL-UHFFFAOYSA-N,COC(=O)C(C)Oc1ccc(Oc2ccc(Cl)cc2Cl)cc1,-3.8339999999999996,0.8499144283723838,3,G4
D-304,fenvalerate,"InChI=1S/C25H22ClNO3/c1-17(2)24(18-11-13-20(26)14-12-18)25(28)30-23(16-27)19-7-6-10-22(15-19)29-21-8-4-3-5-9-21/h3-15,17,23-24H,1-2H3",NYPJDWWKZLNGGM-UHFFFAOYSA-N,CC(C)C(C(=O)OC(C#N)c1cccc(Oc2ccccc2)c1)c3ccc(Cl)cc3,-7.242999999999999,0.5385000000000004,2,G2
D-306,permethrin,"InChI=1S/C21H20Cl2O3/c1-21(2)17(12-18(22)23)19(21)20(24)25-13-14-7-6-10-16(11-14)26-15-8-4-3-5-9-15/h3-12,17,19H,13H2,1-2H3/t17-,19-/m0/s1",RLLPVAHGXHCWKJ-HKUYNNGSSA-N,CC1(C)[C@@H](C=C(Cl)Cl)[C@H]1C(=O)OCc2cccc(Oc3ccccc3)c2,-6.99,0.4121999999999999,2,G3
D-308,triadimenol,"InChI=1S/C14H18ClN3O2/c1-14(2,3)12(19)13(18-9-16-8-17-18)20-11-6-4-10(15)5-7-11/h4-9,12-13,19H,1-3H3",BAZVSMNPJJMILC-UHFFFAOYSA-N,CC(C)(C)C(O)C(Oc1ccc(Cl)cc1)n2cncn2,-3.392,0.28900000000000015,2,G3
D-313,flucythrinate,"InChI=1S/C26H23F2NO4/c1-17(2)24(18-11-13-21(14-12-18)32-26(27)28)25(30)33-23(16-29)19-7-6-10-22(15-19)31-20-8-4-3-5-9-20/h3-15,17,23-24,26H,1-2H3",GBIHOLCMZGAKNG-UHFFFAOYSA-N,CC(C)C(C(=O)OC(C#N)c1cccc(Oc2ccccc2)c1)c3ccc(OC(F)F)cc3,-6.876,0.0,1,G1
D-316,metsulfuron-methyl,"InChI=1S/C14H15N5O6S/c1-8-15-12(18-14(16-8)25-3)17-13(21)19-26(22,23)10-7-5-4-6-9(10)11(20)24-2/h4-7H,1-3H3,(H2,15,16,17,18,19,21)",RSMUVYRMZCOLBH-UHFFFAOYSA-N,COC(=O)c1ccccc1[S](=O)(=O)NC(=O)Nc2nc(C)nc(OC)n2,-1.604,0.0,1,G1
D-322,4-bromobiphenyl,InChI=1S/C12H9Br/c13-12-8-6-11(7-9-12)10-4-2-1-3-5-10/h1-9H,PKJBWOWQJHHAHG-UHFFFAOYSA-N,Brc1ccc(cc1)c2ccccc2,-5.553,0.0,1,G1
D-323,"4-methyl-1,1'-biphenyl","InChI=1S/C13H12/c1-11-7-9-13(10-8-11)12-5-3-2-4-6-12/h2-10H,1H3",ZZLCFHIKESPLTH-UHFFFAOYSA-N,Cc1ccc(cc1)c2ccccc2,-4.618,0.0,1,G1
D-327,2-chlorobiphenyl,InChI=1S/C12H9Cl/c13-12-9-5-4-8-11(12)10-6-2-1-3-7-10/h1-9H,LAXBNTIAOJWAOP-UHFFFAOYSA-N,Clc1ccccc1c2ccccc2,-4.592,0.0259999999999998,2,G3
D-334,"2,2'-dichlorobiphenyl",InChI=1S/C12H8Cl2/c13-11-7-3-1-5-9(11)10-6-2-4-8-12(10)14/h1-8H,JAYCNKDKIKZTAF-UHFFFAOYSA-N,Clc1ccccc1c2ccccc2Cl,-5.081,0.3967201644596465,3,G5
D-340,"2,3'-pcb",InChI=1S/C12H8Cl2/c13-10-5-3-4-9(8-10)11-6-1-2-7-12(11)14/h1-8H,ZHBBDTRJIVXKEX-UHFFFAOYSA-N,Clc1cccc(c1)c2ccccc2Cl,-5.585,0.0,1,G1
D-342,"2,3',4,4'-tetrachlorobiphenyl",InChI=1S/C12H6Cl4/c13-8-2-3-9(11(15)6-8)7-1-4-10(14)12(16)5-7/h1-6H,RKLLTEAEZIJBAU-UHFFFAOYSA-N,Clc1ccc(c(Cl)c1)c2ccc(Cl)c(Cl)c2,-6.9,0.44999999999999973,2,G3
D-348,"2,4-dichlorobiphenyl",InChI=1S/C12H8Cl2/c13-10-6-7-11(12(14)8-10)9-4-2-1-3-5-9/h1-8H,WEJZHZJJXPXXMU-UHFFFAOYSA-N,Clc1ccc(c(Cl)c1)c2ccccc2,-5.287999999999999,0.018999999999999684,2,G3
D-351,"2,5-dichlorobiphenyl",InChI=1S/C12H8Cl2/c13-10-6-7-12(14)11(8-10)9-4-2-1-3-5-9/h1-8H,KKQWHYGECTYFIA-UHFFFAOYSA-N,Clc1ccc(Cl)c(c1)c2ccccc2,-5.2989999999999995,0.029499999999999638,2,G3
D-354,"2,2',3,4,4',5'-hexachlorobiphenyl",InChI=1S/C12H4Cl6/c13-7-2-1-5(11(17)12(7)18)6-3-9(15)10(16)4-8(6)14/h1-4H,RPUMZMSNLZHIGZ-UHFFFAOYSA-N,Clc1ccc(c(Cl)c1Cl)c2cc(Cl)c(Cl)cc2Cl,-8.381,0.034127212992957213,3,G5
D-358,hexabromobiphenyl,InChI=1S/C12H4Br6/c13-7-3-1-5(9(15)11(7)17)6-2-4-8(14)12(18)10(6)16/h1-4H,PTJQVJQAZSLKJO-UHFFFAOYSA-N,Brc1ccc(c(Br)c1Br)c2ccc(Br)c(Br)c2Br,-7.756,0.0,1,G1
D-360,"2,2',4-trichlorobiphenyl",InChI=1S/C12H7Cl3/c13-8-5-6-10(12(15)7-8)9-3-1-2-4-11(9)14/h1-7H,YKKYCYQDUUXNLN-UHFFFAOYSA-N,Clc1ccc(c(Cl)c1)c2ccccc2Cl,-6.49,0.0,1,G1
D-361,"2,4,5,2',5'-pcb",InChI=1S/C12H5Cl5/c13-6-1-2-9(14)7(3-6)8-4-11(16)12(17)5-10(8)15/h1-5H,LAHWLEDBADHJGA-UHFFFAOYSA-N,Clc1ccc(Cl)c(c1)c2cc(Cl)c(Cl)cc2Cl,-7.3260000000000005,0.2819999999999996,2,G3
D-367,"2,2',3,3',6,6'-hexachlorobiphenyl",InChI=1S/C12H4Cl6/c13-5-1-3-7(15)11(17)9(5)10-6(14)2-4-8(16)12(10)18/h1-4H,FZFUUSROAHKTTF-UHFFFAOYSA-N,Clc1ccc(Cl)c(c1Cl)c2c(Cl)ccc(Cl)c2Cl,-7.903,0.45506507471154334,3,G5
D-369,"2,4',6-trichlorobiphenyl",InChI=1S/C12H7Cl3/c13-9-6-4-8(5-7-9)12-10(14)2-1-3-11(12)15/h1-7H,IHIDFKLAWYPTKB-UHFFFAOYSA-N,Clc1ccc(cc1)c2c(Cl)cccc2Cl,-6.209,0.034499999999999975,2,G3
D-374,"3,4,4'-trichlorobiphenyl",InChI=1S/C12H7Cl3/c13-10-4-1-8(2-5-10)9-3-6-11(14)12(15)7-9/h1-7H,YZANRISAORXTHU-UHFFFAOYSA-N,Clc1ccc(cc1)c2ccc(Cl)c(Cl)c2,-6.553999999999999,0.2530000000000001,2,G3
D-387,benz(a)anthracene,InChI=1S/C18H12/c1-2-7-15-12-18-16(11-14(15)6-1)10-9-13-5-3-4-8-17(13)18/h1-12H,DXBHBZVCASKNBY-UHFFFAOYSA-N,c1ccc2cc3c(ccc4ccccc34)cc2c1,-7.385,0.012499999999999734,2,G3
D-391,phenanthrene,InChI=1S/C14H10/c1-3-7-13-11(5-1)9-10-12-6-2-4-8-14(12)13/h1-10H,YNPNZTXNASCQKK-UHFFFAOYSA-N,c1ccc2c(c1)ccc3ccccc23,-5.19,0.04921607686744468,3,G5
D-393,carbazole,"InChI=1S/C12H9N/c1-3-7-11-9(5-1)10-6-2-4-8-12(10)13-11/h1-8,13H",UJOBWOGCFQCDNV-UHFFFAOYSA-N,[nH]1c2ccccc2c3ccccc13,-4.968,0.1509999999999998,2,G3
D-396,pyrene,InChI=1S/C16H10/c1-3-11-7-9-13-5-2-6-14-10-8-12(4-1)15(11)16(13)14/h1-10H,BBEAQIROQSPTKN-UHFFFAOYSA-N,c1cc2ccc3cccc4ccc(c1)c2c34,-6.176,0.05826376804384269,3,G5
D-401,acenaphthylene,InChI=1S/C12H8/c1-3-9-4-2-6-11-8-7-10(5-1)12(9)11/h1-8H,HXGDTGSAIMULJN-UHFFFAOYSA-N,c1cc2cccc3C=Cc(c1)c23,-3.9760000000000004,0.00800000000000023,2,G3
D-402,"dibenzo[a,c]anthracene",InChI=1S/C22H14/c1-2-8-16-14-22-20-12-6-4-10-18(20)17-9-3-5-11-19(17)21(22)13-15(16)7-1/h1-14H,RAASUWZPTOJQAY-UHFFFAOYSA-N,c1ccc2cc3c4ccccc4c5ccccc5c3cc2c1,-8.24,0.0,1,G1
D-405,"dibenzo[a,j]anthracene",InChI=1S/C22H14/c1-3-7-19-15(5-1)9-11-17-13-18-12-10-16-6-2-4-8-20(16)22(18)14-21(17)19/h1-14H,KLIHYVJAYWCEDM-UHFFFAOYSA-N,c1ccc2c(c1)ccc3cc4ccc5ccccc5c4cc23,-8.432,0.5310000000000001,2,G2
D-406,"1,7-phenanthroline",InChI=1S/C12H8N2/c1-3-9-5-6-11-10(4-2-7-13-11)12(9)14-8-1/h1-8H,OZKOMUDCMCEDTM-UHFFFAOYSA-N,c1cnc2c(c1)ccc3ncccc23,-2.681,0.0,1,G1
D-411,9-nitroanthracene,InChI=1S/C14H9NO2/c16-15(17)14-12-7-3-1-5-10(12)9-11-6-2-4-8-13(11)14/h1-9H,LSIKFJXEYJIZNB-UHFFFAOYSA-N,[O-][N+](=O)c1c2ccccc2cc3ccccc13,-6.292000000000001,0.0,1,G1
D-412,2-nitrofluorene,"InChI=1S/C13H9NO2/c15-14(16)11-5-6-13-10(8-11)7-9-3-1-2-4-12(9)13/h1-6,8H,7H2",XFOHWECQTFIEIX-UHFFFAOYSA-N,[O-][N+](=O)c1ccc2c(Cc3ccccc23)c1,-5.99,0.0,1,G1
D-419,2-methylphenanthrene,"InChI=1S/C15H12/c1-11-6-9-15-13(10-11)8-7-12-4-2-3-5-14(12)15/h2-10H,1H3",KANLOADZXMMCQA-UHFFFAOYSA-N,Cc1ccc2c(ccc3ccccc23)c1,-5.837000000000001,0.0,1,G1
D-424,o-xylene,"InChI=1S/C8H10/c1-7-5-3-4-6-8(7)2/h3-6H,1-2H3",CTQNGGLPUBDAKN-UHFFFAOYSA-N,Cc1ccccc1C,-2.7760000000000002,0.011999999999999789,2,G3
D-428,cumene,"InChI=1S/C9H12/c1-8(2)9-6-4-3-5-7-9/h3-8H,1-2H3",RWGFKTVRMDUZSP-UHFFFAOYSA-N,CC(C)c1ccccc1,-3.292,0.010999999999999899,2,G3
D-429,alpha-methylstyrene,"InChI=1S/C9H10/c1-8(2)9-6-4-3-5-7-9/h3-7H,1H2,2H3",XYLMUPLGERFSHI-UHFFFAOYSA-N,CC(=C)c1ccccc1,-3.008,0.0,1,G1
D-431,ethylbenzene,"InChI=1S/C8H10/c1-2-8-6-4-3-5-7-8/h3-7H,2H2,1H3",YNQLUTRBYVCPMQ-UHFFFAOYSA-N,CCc1ccccc1,-2.798,0.014000000000000012,2,G3
D-435,stilbene,InChI=1S/C14H12/c1-3-7-13(8-4-1)11-12-14-9-5-2-6-10-14/h1-12H/b12-11+,PJANXHGTPQOBST-VAWYXSNFSA-N,c1ccc(cc1)\C=C\c2ccccc2,-5.792999999999999,0.06850000000000023,2,G3
D-442,toluene,"InChI=1S/C7H8/c1-7-5-3-2-4-6-7/h2-6H,1H3",YXFVVABEGXRONW-UHFFFAOYSA-N,Cc1ccccc1,-2.2430000000000003,0.01650000000000018,2,G3
D-443,o-diethylbenzene,"InChI=1S/C10H14/c1-3-9-7-5-6-8-10(9)4-2/h5-8H,3-4H2,1-2H3",KVNYFPKFSJIPBJ-UHFFFAOYSA-N,CCc1ccccc1CC,-3.2760000000000002,0.0,1,G1
D-445,m-diethylbenzene,"InChI=1S/C10H14/c1-3-9-6-5-7-10(4-2)8-9/h5-8H,3-4H2,1-2H3",AFZZYIJIWUTJFO-UHFFFAOYSA-N,CCc1cccc(CC)c1,-3.748,0.0,1,G1
D-447,ethynyl benzene,"InChI=1S/C8H6/c1-2-8-6-4-3-5-7-8/h1,3-7H",UEXCJVNBTNXOEH-UHFFFAOYSA-N,C#Cc1ccccc1,-2.35,0.0,1,G1
D-451,p-tolyltoluene,"InChI=1S/C14H14/c1-11-3-7-13(8-4-11)14-9-5-12(2)6-10-14/h3-10H,1-2H3",RZTDESRVPFKCBH-UHFFFAOYSA-N,Cc1ccc(cc1)c2ccc(C)cc2,-6.018,0.0,1,G1
D-454,n-hexylbenzene,"InChI=1S/C12H18/c1-2-3-4-6-9-12-10-7-5-8-11-12/h5,7-8,10-11H,2-4,6,9H2,1H3",LTEQMZWBSYACLV-UHFFFAOYSA-N,CCCCCCc1ccccc1,-5.255,0.022499999999999964,2,G3
D-455,octylbenzene,"InChI=1S/C14H22/c1-2-3-4-5-6-8-11-14-12-9-7-10-13-14/h7,9-10,12-13H,2-6,8,11H2,1H3",CDKDZKXSXLNROY-UHFFFAOYSA-N,CCCCCCCCc1ccccc1,-6.46,0.0,1,G1
D-459,2-chloro-1-nitrobenzene,InChI=1S/C6H4ClNO2/c7-5-3-1-2-4-6(5)8(9)10/h1-4H,BFCFYVKQTRLZHA-UHFFFAOYSA-N,[O-][N+](=O)c1ccccc1Cl,-2.8960000000000004,0.17300000000000026,2,G3
D-461,"2,4,5-trichloronitrobenzene",InChI=1S/C6H2Cl3NO2/c7-3-1-5(9)6(10(11)12)2-4(3)8/h1-2H,IBRBMZRLVYKVRF-UHFFFAOYSA-N,[O-][N+](=O)c1cc(Cl)c(Cl)cc1Cl,-3.887,0.0,1,G1
D-462,2-chlorotoluene,"InChI=1S/C7H7Cl/c1-6-4-2-3-5-7(6)8/h2-5H,1H3",IBSQPLPBRSHTTG-UHFFFAOYSA-N,Cc1ccccc1Cl,-2.53,0.4950000000000001,2,G3
D-477,"2,3,5,6-tetrachloronitrobenzene",InChI=1S/C6HCl4NO2/c7-2-1-3(8)5(10)6(4(2)9)11(12)13/h1H,XQTLDIFVVHJORV-UHFFFAOYSA-N,[O-][N+](=O)c1c(Cl)c(Cl)cc(Cl)c1Cl,-5.096,0.33699999999999974,2,G3
D-485,3-dichlorobenzene,InChI=1S/C6H4Cl2/c7-5-2-1-3-6(8)4-5/h1-4H,ZPQOPVIELGIULI-UHFFFAOYSA-N,Clc1cccc(Cl)c1,-3.07,0.014999999999999902,2,G3
D-490,m-chlorofluorobenzene,InChI=1S/C6H4ClF/c7-5-2-1-3-6(8)4-5/h1-4H,VZHJIJZEOCBKRA-UHFFFAOYSA-N,Fc1cccc(Cl)c1,-2.346,0.0,1,G1
D-495,"2,3,4,5-tetrachloronitrobenzene",InChI=1S/C6HCl4NO2/c7-2-1-3(11(12)13)5(9)6(10)4(2)8/h1H,MTBYTWZDRVOMBR-UHFFFAOYSA-N,[O-][N+](=O)c1cc(Cl)c(Cl)c(Cl)c1Cl,-4.553,0.0,1,G1
D-496,m-bromofluorobenzene,InChI=1S/C6H4BrF/c7-5-2-1-3-6(8)4-5/h1-4H,QDFKKJYEIFBEFC-UHFFFAOYSA-N,Fc1cccc(Br)c1,-2.6660000000000004,0.0,1,G1
D-498,"2,4,6-trichloronitrobenzene",InChI=1S/C6H2Cl3NO2/c7-3-1-4(8)6(10(11)12)5(9)2-3/h1-2H,AEBJDOTVYMITIA-UHFFFAOYSA-N,[O-][N+](=O)c1c(Cl)cc(Cl)cc1Cl,-4.559,0.0,1,G1
D-503,o-hydroxybenzamide,"InChI=1S/C7H7NO2/c8-7(10)5-3-1-2-4-6(5)9/h1-4,9H,(H2,8,10)",SKZKKFZAGNVIMN-UHFFFAOYSA-N,NC(=O)c1ccccc1O,-1.8230000000000002,0.034412530017745364,3,G5
D-507,benzoyl peroxide,InChI=1S/C14H10O4/c15-13(11-7-3-1-4-8-11)17-18-14(16)12-9-5-2-6-10-12/h1-10H,OMPJBNCRMGITSC-UHFFFAOYSA-N,O=C(OOC(=O)c1ccccc1)c2ccccc2,-4.425,0.0,1,G1
D-508,benzotrifluoride,"InChI=1S/C7H5F3/c8-7(9,10)6-4-2-1-3-5-6/h1-5H",GETTZEONDQJALK-UHFFFAOYSA-N,FC(F)(F)c1ccccc1,-2.511,0.2538,2,G3
D-515,phenylisothiocyanate,InChI=1S/C7H5NS/c9-6-8-7-4-2-1-3-5-7/h1-5H,QKFJKGMPGYROCL-UHFFFAOYSA-N,S=C=Nc1ccccc1,-3.177,0.0,1,G1
D-524,benzylisothiocyanate,"InChI=1S/C8H7NS/c10-7-9-6-8-4-2-1-3-5-8/h1-5H,6H2",MDKCFLQDBWCQCV-UHFFFAOYSA-N,S=C=NCc1ccccc1,-3.136,0.0,1,G1
D-526,"2,6-dichlorobenzamide","InChI=1S/C7H5Cl2NO/c8-4-2-1-3-5(9)6(4)7(10)11/h1-3H,(H2,10,11)",JHSPCUHPSIUQRB-UHFFFAOYSA-N,NC(=O)c1c(Cl)cccc1Cl,-1.8430000000000002,0.0,1,G1
D-527,3-methyl-4'-nitrodiphenyl ether,"InChI=1S/C13H11NO3/c1-10-3-2-4-13(9-10)17-12-7-5-11(6-8-12)14(15)16/h2-9H,1H3",DLKBRTKDSDXWNA-UHFFFAOYSA-N,Cc1cccc(Oc2ccc(cc2)[N+]([O-])=O)c1,-4.6610000000000005,0.0,1,G1
D-528,"a-(2,2,2-trichloroethyl)styrene","InChI=1S/C10H9Cl3/c1-8(7-10(11,12)13)9-5-3-2-4-6-9/h2-6H,1,7H2",JNHUFDXYWPRKLK-UHFFFAOYSA-N,ClC(Cl)(Cl)CC(=C)c1ccccc1,-4.282,0.0,1,G1
D-529,n-(ethylaminomethyl)benzamide,"InChI=1S/C10H14N2O/c1-2-11-8-12-10(13)9-6-4-3-5-7-9/h3-7,11H,2,8H2,1H3,(H,12,13)",MUDXIWKFOCILIO-UHFFFAOYSA-N,CCNCNC(=O)c1ccccc1,-0.075,0.0,1,G1
D-530,methylamine,"InChI=1S/CH5N/c1-2/h2H2,1H3",BAVYZALUXZFZLV-UHFFFAOYSA-N,CN,1.541,0.0,1,G1
D-531,ethylamine,"InChI=1S/C2H7N/c1-2-3/h2-3H2,1H3",QUSNBJAOOMFDIB-UHFFFAOYSA-N,CCN,1.3459999999999999,0.0,1,G1
D-532,isopropylamine,"InChI=1S/C3H9N/c1-3(2)4/h3H,4H2,1-2H3",JJWLVOIRVHMVIS-UHFFFAOYSA-N,CC(C)N,1.228,0.0,1,G1
D-533,trimethylamine,InChI=1S/C3H9N/c1-4(2)3/h1-3H3,GETQZCLCWQTVFV-UHFFFAOYSA-N,CN(C)C,1.178,0.16899999999999998,2,G3
D-534,t-butylamine,"InChI=1S/C4H11N/c1-4(2,3)5/h5H2,1-3H3",YBRBMKDOPFTVDT-UHFFFAOYSA-N,CC(C)(C)N,1.136,0.0,1,G1
D-535,isobutylamine,"InChI=1S/C4H11N/c1-4(2)3-5/h4H,3,5H2,1-2H3",KDSNLYIMUZNERS-UHFFFAOYSA-N,CC(C)CN,1.136,0.0,1,G1
D-539,propylamine,"InChI=1S/C3H9N/c1-2-3-4/h2-4H2,1H3",WGYKZJWCGVVSQN-UHFFFAOYSA-N,CCCN,1.228,0.0,1,G1
D-540,allylamine,"InChI=1S/C3H7N/c1-2-3-4/h2H,1,3-4H2",VVJKKWFAADXIJK-UHFFFAOYSA-N,NCC=C,1.2429999999999999,0.0,1,G1
D-541,cyclohexanamine,"InChI=1S/C6H13N/c7-6-4-2-1-3-5-6/h6H,1-5,7H2",PAFZNILMFXTMIY-UHFFFAOYSA-N,NC1CCCCC1,1.004,0.0,1,G1
D-542,n-butylamine,"InChI=1S/C4H11N/c1-2-3-4-5/h2-5H2,1H3",HQABUPZFAYXKJW-UHFFFAOYSA-N,CCCCN,1.136,0.0,1,G1
D-543,diethylamine,"InChI=1S/C4H11N/c1-3-5-4-2/h5H,3-4H2,1-2H3",HPNMFZURTQLUMO-UHFFFAOYSA-N,CCNCC,1.136,0.0,1,G1
D-544,n-pentylamine,"InChI=1S/C5H13N/c1-2-3-4-5-6/h2-6H2,1H3",DPBLXKKOBLCELK-UHFFFAOYSA-N,CCCCCN,1.06,0.0,1,G1
D-548,diallylamine,"InChI=1S/C6H11N/c1-3-5-7-6-4-2/h3-4,7H,1-2,5-6H2",DYUWTXWIYMHBQS-UHFFFAOYSA-N,C=CCNCC=C,-0.053,0.0,1,G1
D-549,dimethylamine,"InChI=1S/C2H7N/c1-3-2/h3H,1-2H3",ROSDSFDQCJNGOL-UHFFFAOYSA-N,CNC,1.558,0.0,1,G1
D-550,ethanolamine,"InChI=1S/C2H7NO/c3-1-2-4/h4H,1-3H2",HZAXFHJVJLSVMW-UHFFFAOYSA-N,NCCO,1.214,0.0,1,G1
D-563,3-nitroaniline,"InChI=1S/C6H6N2O2/c7-5-2-1-3-6(4-5)8(9)10/h1-4H,7H2",XJCVRTZCHMZPBD-UHFFFAOYSA-N,Nc1cccc(c1)[N+]([O-])=O,-2.061,0.0645,2,G3
D-572,"1,3-benzenediamine","InChI=1S/C6H8N2/c7-5-2-1-3-6(8)4-5/h1-4H,7-8H2",WZCQRUWWHSTZEM-UHFFFAOYSA-N,Nc1cccc(N)c1,0.34299999999999997,0.08350000000000002,2,G3
D-576,p-anisaldehyde,"InChI=1S/C8H8O2/c1-10-8-4-2-7(6-9)3-5-8/h2-6H,1H3",ZRSNZINYAWTAHE-UHFFFAOYSA-N,COc1ccc(C=O)cc1,-1.5019999999999998,0.005999999999999894,2,G3
D-578,"2,4-dichloroaniline","InChI=1S/C6H5Cl2N/c7-4-1-2-6(9)5(8)3-4/h1-3H,9H2",KQCMTOWTPBNWDB-UHFFFAOYSA-N,Nc1ccc(Cl)cc1Cl,-2.417,0.0,1,G1
D-579,"phenol, 3-amino-","InChI=1S/C6H7NO/c7-5-2-1-3-6(8)4-5/h1-4,8H,7H2",CWLKGDAVCFYWJK-UHFFFAOYSA-N,Nc1cccc(O)c1,-0.607,0.016500000000000015,2,G3
D-580,"3,5-dichloroaniline","InChI=1S/C6H5Cl2N/c7-4-1-5(8)3-6(9)2-4/h1-3H,9H2",UQRLKWGPEVNVHT-UHFFFAOYSA-N,Nc1cc(Cl)cc(Cl)c1,-2.315,0.0,1,G1
D-581,"2,4,6-trichloroaniline","InChI=1S/C6H4Cl3N/c7-3-1-4(8)6(10)5(9)2-3/h1-2H,10H2",NATVSFWWYVJTAZ-UHFFFAOYSA-N,Nc1c(Cl)cc(Cl)cc1Cl,-3.6910000000000003,0.0,1,G1
D-584,diphenylolpropane,"InChI=1S/C15H16O2/c1-15(2,11-3-7-13(16)8-4-11)12-5-9-14(17)10-6-12/h3-10,16-17H,1-2H3",IISBACLAFKSPIT-UHFFFAOYSA-N,CC(C)(c1ccc(O)cc1)c2ccc(O)cc2,-3.279,0.22950000000000004,2,G3
D-592,2-methoxyphenol,"InChI=1S/C7H8O2/c1-9-7-5-3-2-4-6(7)8/h2-5,8H,1H3",LHGVFZTZFXWLCP-UHFFFAOYSA-N,COc1ccccc1O,-0.8220000000000001,0.569,2,G2
D-594,"2,6-dimethoxyphenol","InChI=1S/C8H10O3/c1-10-6-4-3-5-7(11-2)8(6)9/h3-5,9H,1-2H3",KLIDCXVFHGNTTM-UHFFFAOYSA-N,COc1cccc(OC)c1O,-0.9520000000000001,0.0,1,G1
D-615,4-methyl-2-nitrophenol,"InChI=1S/C7H7NO3/c1-5-2-3-7(9)6(4-5)8(10)11/h2-4,9H,1H3",SYDNSSSQVSOXTN-UHFFFAOYSA-N,Cc1ccc(O)c(c1)[N+]([O-])=O,-2.384,0.08299999999999996,2,G3
D-620,4-hydroxybenzaldehyde,"InChI=1S/C7H6O2/c8-5-6-1-3-7(9)4-2-6/h1-5,9H",RGHHSNMVTDWUBI-UHFFFAOYSA-N,Oc1ccc(C=O)cc1,-0.976,0.0907450641449256,3,G5
D-622,p-methoxyphenol,"InChI=1S/C7H8O2/c1-9-7-4-2-6(8)3-5-7/h2-5,8H,1H3",NWVVVBRKAWDGAB-UHFFFAOYSA-N,COc1ccc(O)cc1,-0.49200000000000005,0.089,2,G3
D-624,4-trifluoromethyl-2-nitrophenol,"InChI=1S/C7H4F3NO3/c8-7(9,10)4-1-2-6(12)5(3-4)11(13)14/h1-3,12H",XZEDEVRSUANQEM-UHFFFAOYSA-N,Oc1ccc(cc1[N+]([O-])=O)C(F)(F)F,-2.503,0.0,1,G1
D-627,"4,6-dinitro-o-cresol","InChI=1S/C7H6N2O5/c1-4-2-5(8(11)12)3-6(7(4)10)9(13)14/h2-3,10H,1H3",ZXVONLUNISGICL-UHFFFAOYSA-N,Cc1cc(cc(c1O)[N+]([O-])=O)[N+]([O-])=O,-3.0,0.7792782985985602,3,G4
D-630,"2,3-dichlorophenol","InChI=1S/C6H4Cl2O/c7-4-2-1-3-5(9)6(4)8/h1-3,9H",UMPSXRYVXUPCOS-UHFFFAOYSA-N,Oc1cccc(Cl)c1Cl,-1.656,0.17799999999999994,2,G3
D-635,"3,5-dichlorophenol","InChI=1S/C6H4Cl2O/c7-4-1-5(8)3-6(9)2-4/h1-3,9H",VPOMSPZBQMDLTM-UHFFFAOYSA-N,Oc1cc(Cl)cc(Cl)c1,-1.5590000000000002,0.10950000000000004,2,G3
D-636,2-nitroresorcinol,"InChI=1S/C6H5NO4/c8-4-2-1-3-5(9)6(4)7(10)11/h1-3,8-9H",ZLCPKMIJYMHZMJ-UHFFFAOYSA-N,Oc1cccc(O)c1[N+]([O-])=O,-2.073,0.0,1,G1
D-637,"2,4-dibromophenol","InChI=1S/C6H4Br2O/c7-4-1-2-6(9)5(8)3-4/h1-3,9H",FAXWFCTVSHEODL-UHFFFAOYSA-N,Oc1ccc(Br)cc1Br,-2.123,0.021500000000000075,2,G3
D-639,"2,3,6-trichlorophenol","InChI=1S/C6H3Cl3O/c7-3-1-2-4(8)6(10)5(3)9/h1-2,10H",XGCHAIDDPMFRLJ-UHFFFAOYSA-N,Oc1c(Cl)ccc(Cl)c1Cl,-2.642,0.0,1,G1
D-642,"2,3,6-trimethylphenol","InChI=1S/C9H12O/c1-6-4-5-7(2)9(10)8(6)3/h4-5,10H,1-3H3",QQOMQLYQAXGHSU-UHFFFAOYSA-N,Cc1ccc(C)c(O)c1C,-1.936,0.0,1,G1
D-645,4-(sec-butyl)-2-nitrophenol,"InChI=1S/C10H13NO3/c1-3-7(2)8-4-5-10(12)9(6-8)11(13)14/h4-7,12H,3H2,1-2H3",GCDCKEORRIGZKI-UHFFFAOYSA-N,CCC(C)c1ccc(O)c(c1)[N+]([O-])=O,-3.84,0.0,1,G1
D-648,lactic acid,"InChI=1S/C3H6O3/c1-2(4)3(5)6/h2,4H,1H3,(H,5,6)",JVTAAEKCZFNVCJ-UHFFFAOYSA-N,CC(O)C(O)=O,1.045,0.0,1,G1
D-650,formic acid,"InChI=1S/CH2O2/c2-1-3/h1H,(H,2,3)",BDAGIHXWWSANSR-UHFFFAOYSA-N,OC=O,1.337,0.0,1,G1
D-652,trichloroacetic acid,"InChI=1S/C2HCl3O2/c3-2(4,5)1(6)7/h(H,6,7)",YNJBWRMUSHSURL-UHFFFAOYSA-N,OC(=O)C(Cl)(Cl)Cl,0.519,0.525883595062211,3,G4
D-654,gibberellic acid,"InChI=1S/C19H22O6/c1-9-7-17-8-18(9,24)5-3-10(17)19-6-4-11(20)16(2,15(23)25-19)13(19)12(17)14(21)22/h4,6,10-13,20,24H,1,3,5,7-8H2,2H3,(H,21,22)/t10-,11+,12-,13-,16?,17+,18+,19-/m1/s1",IXORZMNAPKEEDV-QTWFBFKQSA-N,CC12[C@@H](O)C=C[C@@]3(OC1=O)[C@@H]4CC[C@]5(O)C[C@]4(CC5=C)[C@H]([C@H]23)C(O)=O,-1.841,0.0,1,G1
D-655,citric acid,"InChI=1S/C6H8O7/c7-3(8)1-6(13,5(11)12)2-4(9)10/h13H,1-2H2,(H,7,8)(H,9,10)(H,11,12)",KRKNYBCHXYNGOX-UHFFFAOYSA-N,OC(=O)CC(O)(CC(O)=O)C(O)=O,0.489,0.01050000000000001,2,G3
D-656,propionic acid,"InChI=1S/C3H6O2/c1-2-3(4)5/h2H2,1H3,(H,4,5)",XBDQKXXYIPTUBI-UHFFFAOYSA-N,CCC(O)=O,1.13,0.0,1,G1
D-660,dichloroacetic acid,"InChI=1S/C2H2Cl2O2/c3-1(4)2(5)6/h1H,(H,5,6)",JXTHNDFMNIQAHM-UHFFFAOYSA-N,OC(=O)C(Cl)Cl,0.89,0.0,1,G1
D-661,a-bromobutyric acid,"InChI=1S/C4H7BrO2/c1-2-3(5)4(6)7/h3H,2H2,1H3,(H,6,7)",YAQLSKVCTLCIIE-UHFFFAOYSA-N,CCC(Br)C(O)=O,-0.37799999999999995,0.0,1,G1
D-663,indole-3-acetic acid,"InChI=1S/C10H9NO2/c12-10(13)5-7-6-11-9-4-2-1-3-8(7)9/h1-4,6,11H,5H2,(H,12,13)",SEOVTRFCIGRIMH-UHFFFAOYSA-N,OC(=O)Cc1c[nH]c2ccccc12,-2.0669999999999997,0.0,1,G1
D-666,2-methyl-4-chlorophenoxyacetic acid,"InChI=1S/C9H9ClO3/c1-6-4-7(10)2-3-8(6)13-5-9(11)12/h2-4H,5H2,1H3,(H,11,12)",WHKUVVPPKQRRBV-UHFFFAOYSA-N,Cc1cc(Cl)ccc1OCC(O)=O,-2.503,0.13650000000000007,2,G3
D-671,pentanoic acid,"InChI=1S/C5H10O2/c1-2-3-4-5(6)7/h2-4H2,1H3,(H,6,7)",NQPDZGIKBAWPEJ-UHFFFAOYSA-N,CCCCC(O)=O,-0.41600000000000004,0.0,1,G1
D-674,sorbic acid,"InChI=1S/C6H8O2/c1-2-3-4-5-6(7)8/h2-5H,1H3,(H,7,8)/b3-2+,5-4+",WSWCOQWTEOXDQX-MQQKCMAXSA-N,C/C=C/C=C/C(O)=O,-1.652,0.05900000000000005,2,G3
D-684,hexanedioc acid,"InChI=1S/C6H10O4/c7-5(8)3-1-2-4-6(9)10/h1-4H2,(H,7,8)(H,9,10)",WNLRTRBMVRJNCN-UHFFFAOYSA-N,OC(=O)CCCCC(O)=O,-0.6759999999999999,0.07200000000000001,2,G3
D-685,octanoic acid,"InChI=1S/C8H16O2/c1-2-3-4-5-6-7-8(9)10/h2-7H2,1H3,(H,9,10)",WWZKQHOCKIZLMA-UHFFFAOYSA-N,CCCCCCCC(O)=O,-2.262,0.018999999999999906,2,G3
D-686,trans-cinnamic acid,"InChI=1S/C9H8O2/c10-9(11)7-6-8-4-2-1-3-5-8/h1-7H,(H,10,11)/b7-6+",WBYWAXJHAXSJNI-VOTSOKGWSA-N,OC(=O)\C=C\c1ccccc1,-2.434,0.05966759775809822,3,G5
D-689,2-ethylhexanoic acid,"InChI=1S/C8H16O2/c1-3-5-6-7(4-2)8(9)10/h7H,3-6H2,1-2H3,(H,9,10)",OBETXYAYXDNJHR-UHFFFAOYSA-N,CCCCC(CC)C(O)=O,-1.858,0.0,1,G1
D-699,"cinnamic acid, p-methoxy-","InChI=1S/C10H10O3/c1-13-9-5-2-8(3-6-9)4-7-10(11)12/h2-7H,1H3,(H,11,12)/b7-4+",AFDXODALSZRGIH-QPJJXVBHSA-N,COc1ccc(\C=C\C(O)=O)cc1,-2.398,0.22035000000000005,2,G3