ID,Name,InChI,InChIKey,SMILES,Solubility,SD,Occurrences,Group
C-2551,temafloxacin,"InChI=1S/C21H18F3N3O3/c1-11-9-26(5-4-25-11)19-8-18-13(7-16(19)24)20(28)14(21(29)30)10-27(18)17-3-2-12(22)6-15(17)23/h2-3,6-8,10-11,25H,4-5,9H2,1H3,(H,29,30)",QKDHBVNJCZBTMR-UHFFFAOYSA-N,CC1CN(CCN1)C2=CC3=C(C=C2F)C(=O)C(=CN3C4=C(F)C=C(F)C=C4)C(O)=O,-3.8,0.0,1,G1
C-2552,4-tolyl-kni-727,"InChI=1S/C28H37N3O4S/c1-18-12-14-20(15-13-18)24(33)29-21(16-19-10-8-7-9-11-19)22(32)26(35)31-17-36-28(5,6)23(31)25(34)30-27(2,3)4/h7-15,21-23,32H,16-17H2,1-6H3,(H,29,33)(H,30,34)",YTCOHNPTVJAKQB-UHFFFAOYSA-N,CC1=CC=C(C=C1)C(=O)NC(CC2=CC=CC=C2)C(O)C(=O)N3CSC(C)(C)C3C(=O)NC(C)(C)C,-4.11,0.0,1,G1
C-2553,folic  acid,"InChI=1S/C19H19N7O6/c20-19-25-15-14(17(30)26-19)23-11(8-22-15)7-21-10-3-1-9(2-4-10)16(29)24-12(18(31)32)5-6-13(27)28/h1-4,8,12,21H,5-7H2,(H,24,29)(H,27,28)(H,31,32)(H3,20,22,25,26,30)",OVBPIULPVIDEAO-UHFFFAOYSA-N,NC1=NC(=O)C2=C(N1)N=CC(=N2)CNC3=CC=C(C=C3)C(=O)NC(CCC(O)=O)C(O)=O,-5.44,0.0,1,G1
C-2554,trovafloxacin,"InChI=1S/C20H15F3N4O3/c21-8-1-2-15(13(22)3-8)27-7-12(20(29)30)17(28)9-4-14(23)19(25-18(9)27)26-5-10-11(6-26)16(10)24/h1-4,7,10-11,16H,5-6,24H2,(H,29,30)",WVPSKSLAZQPAKQ-UHFFFAOYSA-N,NC1C2CN(CC12)C3=NC4=C(C=C3F)C(=O)C(=CN4C5=CC=C(F)C=C5F)C(O)=O,-4.53,0.0,1,G1
C-2555,"5-(4-chloro-3-nitrobenzenesulfonyl-imido)-4-methyl-2-sulfonamido-delta2-1,3,4-thiadiazoline","InChI=1S/C9H8ClN5O6S3/c1-14-8(22-9(12-14)23(11,18)19)13-24(20,21)5-2-3-6(10)7(4-5)15(16)17/h2-4H,1H3,(H2,11,18,19)",UFQSGSXDRVNGIM-UHFFFAOYSA-N,CN1N=C(SC1=N[S](=O)(=O)C2=CC(=C(Cl)C=C2)[N+]([O-])=O)[S](N)(=O)=O,-2.47,0.0,1,G1
C-2556,n4-[(2-phenylsulfonylamino)pyrimidin-4-yl]sulfanilamide; 2-(phenylsulfonylamino)-4-(4-sulfamoylphenylamino)pyrimidine,"InChI=1S/C16H15N5O4S2/c17-26(22,23)13-8-6-12(7-9-13)19-15-10-11-18-16(20-15)21-27(24,25)14-4-2-1-3-5-14/h1-11H,(H2,17,22,23)(H2,18,19,20,21)",RVUMZJPBSNPRBS-UHFFFAOYSA-N,N[S](=O)(=O)C1=CC=C(NC2=NC(=NC=C2)N[S](=O)(=O)C3=CC=CC=C3)C=C1,-2.55,0.0,1,G1
C-2557,beta-cyclodextrin;  betadex,"InChI=1S/C42H70O35/c43-1-8-29-15(50)22(57)36(64-8)72-30-9(2-44)66-38(24(59)17(30)52)74-32-11(4-46)68-40(26(61)19(32)54)76-34-13(6-48)70-42(28(63)21(34)56)77-35-14(7-49)69-41(27(62)20(35)55)75-33-12(5-47)67-39(25(60)18(33)53)73-31-10(3-45)65-37(71-29)23(58)16(31)51/h8-63H,1-7H2",WHGYBXFWUBPSRW-UHFFFAOYSA-N,OCC1OC2OC3C(O)C(O)C(OC3CO)OC4C(O)C(O)C(OC4CO)OC5C(O)C(O)C(OC5CO)OC6C(O)C(O)C(OC6CO)OC7C(O)C(O)C(OC7CO)OC8C(O)C(O)C(OC8CO)OC1C(O)C2O,-1.84,0.0,1,G1
C-2558,"2,6-demethyl-kni-727","InChI=1S/C28H37N3O5S/c1-27(2,3)30-25(34)24-28(4,5)37-18-31(24)26(35)23(33)21(16-19-12-8-6-9-13-19)29-22(32)17-36-20-14-10-7-11-15-20/h6-15,21,23-24,33H,16-18H2,1-5H3,(H,29,32)(H,30,34)",GPNZSHBQHQEFRS-UHFFFAOYSA-N,CC(C)(C)NC(=O)C1N(CSC1(C)C)C(=O)C(O)C(CC2=CC=CC=C2)NC(=O)COC3=CC=CC=C3,-3.83,0.0,1,G1
C-2559,n4-[2-(benzylsulfonamido)pyrimidin-4-yl)sulfanilamide; 4-[2-(benzylsulfonylamino)pyrimidin-4-ylamino]benzenesulfonamide,"InChI=1S/C17H17N5O4S2/c18-28(25,26)15-8-6-14(7-9-15)20-16-10-11-19-17(21-16)22-27(23,24)12-13-4-2-1-3-5-13/h1-11H,12H2,(H2,18,25,26)(H2,19,20,21,22)",QFSKYCBYJWHTPZ-UHFFFAOYSA-N,N[S](=O)(=O)C1=CC=C(NC2=CC=NC(=N2)N[S](=O)(=O)CC3=CC=CC=C3)C=C1,-2.7,0.0,1,G1
C-2560,4-chlorophenyl-kni-727,"InChI=1S/C27H34ClN3O4S/c1-26(2,3)30-24(34)22-27(4,5)36-16-31(22)25(35)21(32)20(15-17-9-7-6-8-10-17)29-23(33)18-11-13-19(28)14-12-18/h6-14,20-22,32H,15-16H2,1-5H3,(H,29,33)(H,30,34)",QEBIAQVIMDQJHN-UHFFFAOYSA-N,CC(C)(C)NC(=O)C1N(CSC1(C)C)C(=O)C(O)C(CC2=CC=CC=C2)NC(=O)C3=CC=C(Cl)C=C3,-4.28,0.0,1,G1
C-2561,"2-sulfamoyl-5-(2,4-dinitrobenzenesulfonamido)-1,3,4-thiadiazole","InChI=1S/C8H6N6O8S3/c9-24(19,20)8-11-10-7(23-8)12-25(21,22)6-2-1-4(13(15)16)3-5(6)14(17)18/h1-3H,(H,10,12)(H2,9,19,20)",BHTKPRRBITUJME-UHFFFAOYSA-N,N[S](=O)(=O)C1=NN=C(N[S](=O)(=O)C2=C(C=C(C=C2)[N+]([O-])=O)[N+]([O-])=O)S1,-2.91,0.0,1,G1
C-2562,4-methoxyphenylkni-727,"InChI=1S/C28H37N3O5S/c1-27(2,3)30-25(34)23-28(4,5)37-17-31(23)26(35)22(32)21(16-18-10-8-7-9-11-18)29-24(33)19-12-14-20(36-6)15-13-19/h7-15,21-23,32H,16-17H2,1-6H3,(H,29,33)(H,30,34)",BGYMYZNZTXVIHI-UHFFFAOYSA-N,COC1=CC=C(C=C1)C(=O)NC(CC2=CC=CC=C2)C(O)C(=O)N3CSC(C)(C)C3C(=O)NC(C)(C)C,-4.11,0.0,1,G1
C-2563,"2-(n4-glycylglycylsulfanilamido)-1,3,4-thiadiazole-5-sulfonamide","InChI=1S/C12H15N7O6S3/c13-5-9(20)15-6-10(21)16-7-1-3-8(4-2-7)28(24,25)19-11-17-18-12(26-11)27(14,22)23/h1-4H,5-6,13H2,(H,15,20)(H,16,21)(H,17,19)(H2,14,22,23)",HWIVJEDAPLKYBT-UHFFFAOYSA-N,NCC(=O)NCC(=O)NC1=CC=C(C=C1)[S](=O)(=O)NC2=NN=C(S2)[S](N)(=O)=O,-1.29,0.0,1,G1
C-2564,triflusulfuron-methyl,"InChI=1S/C17H19F3N6O6S/c1-9-6-5-7-10(12(27)31-4)11(9)33(29,30)25-15(28)22-13-21-14(26(2)3)24-16(23-13)32-8-17(18,19)20/h5-7H,8H2,1-4H3,(H2,21,22,23,24,25,28)",IMEVJVISCHQJRM-UHFFFAOYSA-N,COC(=O)C1=C(C(=CC=C1)C)[S](=O)(=O)NC(=O)NC2=NC(=NC(=N2)OCC(F)(F)F)N(C)C,-5.69,0.0,1,G1
C-2565,kni-727,"InChI=1S/C30H41N3O5S/c1-19-12-11-13-20(2)25(19)38-17-23(34)31-22(16-21-14-9-8-10-15-21)24(35)28(37)33-18-39-30(6,7)26(33)27(36)32-29(3,4)5/h8-15,22,24,26,35H,16-18H2,1-7H3,(H,31,34)(H,32,36)",CSWRAOHDICNMPU-UHFFFAOYSA-N,CC1=C(OCC(=O)NC(CC2=CC=CC=C2)C(O)C(=O)N3CSC(C)(C)C3C(=O)NC(C)(C)C)C(=CC=C1)C,-5.01,0.0,1,G1
C-2566,"5-(2,4-dinitrobenzenesulfonylimido)-4-methyl-2-sulfonamido-delta2-1,3,4-thiadiazoline","InChI=1S/C9H8N6O8S3/c1-13-8(24-9(11-13)25(10,20)21)12-26(22,23)7-3-2-5(14(16)17)4-6(7)15(18)19/h2-4H,1H3,(H2,10,20,21)",SUCOUIBVJOOUIQ-UHFFFAOYSA-N,CN1N=C(SC1=N[S](=O)(=O)C2=C(C=C(C=C2)[N+]([O-])=O)[N+]([O-])=O)[S](N)(=O)=O,-2.74,0.0,1,G1
C-2567,4-nitrophenyl-kni-727,"InChI=1S/C27H34N4O6S/c1-26(2,3)29-24(34)22-27(4,5)38-16-30(22)25(35)21(32)20(15-17-9-7-6-8-10-17)28-23(33)18-11-13-19(14-12-18)31(36)37/h6-14,20-22,32H,15-16H2,1-5H3,(H,28,33)(H,29,34)",JQTIFLNFYNBCAF-UHFFFAOYSA-N,CC(C)(C)NC(=O)C1N(CSC1(C)C)C(=O)C(O)C(CC2=CC=CC=C2)NC(=O)C3=CC=C(C=C3)[N+]([O-])=O,-3.98,0.0,1,G1
C-2568,2-sulfanilamido-4-(diphenyl-4-yl)thiazole,"InChI=1S/C21H17N3O2S2/c22-18-10-12-19(13-11-18)28(25,26)24-21-23-20(14-27-21)17-8-6-16(7-9-17)15-4-2-1-3-5-15/h1-14H,22H2,(H,23,24)",CJZCIWDJIZWGBK-UHFFFAOYSA-N,NC1=CC=C(C=C1)[S](=O)(=O)NC2=NC(=CS2)C3=CC=C(C=C3)C4=CC=CC=C4,-5.61,0.0,1,G1
C-2569,2-(4-bromophenylsulfonylamino)-4-(4-sulfamoylphenylamino)pyrimidine; n4-[2-(4-bromophenylsulfonylamino)pyrimidin-4-yl]sulfanilamide,"InChI=1S/C16H14BrN5O4S2/c17-11-1-5-14(6-2-11)28(25,26)22-16-19-10-9-15(21-16)20-12-3-7-13(8-4-12)27(18,23)24/h1-10H,(H2,18,23,24)(H2,19,20,21,22)",FRXWFMQJGARFOJ-UHFFFAOYSA-N,N[S](=O)(=O)C1=CC=C(NC2=NC(=NC=C2)N[S](=O)(=O)C3=CC=C(Br)C=C3)C=C1,-2.62,0.0,1,G1
C-2570,4-[2-(4-tosylureido)pyrimidin-4-yl-amino]benzenesulfonamide,"InChI=1S/C18H18N6O5S2/c1-12-2-6-15(7-3-12)31(28,29)24-18(25)23-17-20-11-10-16(22-17)21-13-4-8-14(9-5-13)30(19,26)27/h2-11H,1H3,(H2,19,26,27)(H3,20,21,22,23,24,25)",DYGCMMCLBCULBL-UHFFFAOYSA-N,CC1=CC=C(C=C1)[S](=O)(=O)NC(=O)NC2=NC(=CC=N2)NC3=CC=C(C=C3)[S](N)(=O)=O,-4.3,0.0,1,G1
C-2571,chlorfluazuron;  atabron,"InChI=1S/C20H9Cl3F5N3O3/c21-10-5-9(30-19(33)31-17(32)15-13(24)2-1-3-14(15)25)6-11(22)16(10)34-18-12(23)4-8(7-29-18)20(26,27)28/h1-7H,(H2,30,31,32,33)",UISUNVFOGSJSKD-UHFFFAOYSA-N,FC1=CC=CC(=C1C(=O)NC(=O)NC2=CC(=C(OC3=C(Cl)C=C(C=N3)C(F)(F)F)C(=C2)Cl)Cl)F,-8.65,0.0,1,G1
C-2572,n-phosphorylated cimicoxib;  n-[4-(4-chloro-5-(3-fluoro-4-methoxyphenyl)imidazol-1-yl)phenylsulfonyl]phosphoramidic acid,"InChI=1S/C16H14ClFN3O6PS/c1-27-14-7-2-10(8-13(14)18)15-16(17)19-9-21(15)11-3-5-12(6-4-11)29(25,26)20-28(22,23)24/h2-9H,1H3,(H3,20,22,23,24)",DEOMXAFNZXYCBQ-UHFFFAOYSA-N,COC1=C(F)C=C(C=C1)C2=C(Cl)N=C[N]2C3=CC=C(C=C3)[S](=O)(=O)N[P](O)(O)=O,-2.55,0.0,1,G1
C-2573,4-[2-(3-trifluoromethylphenylsulfonylamino)pyrimidin-4-ylamino]benzenesulfonamide,"InChI=1S/C17H14F3N5O4S2/c18-17(19,20)11-2-1-3-14(10-11)31(28,29)25-16-22-9-8-15(24-16)23-12-4-6-13(7-5-12)30(21,26)27/h1-10H,(H2,21,26,27)(H2,22,23,24,25)",KJQMAJCVWXRIHO-UHFFFAOYSA-N,N[S](=O)(=O)C1=CC=C(NC2=CC=NC(=N2)N[S](=O)(=O)C3=CC(=CC=C3)C(F)(F)F)C=C1,-1.82,0.0,1,G1
C-2574,4-[2-(4-chlorphenylsulfonylureido)pyrimidin-4-ylamino]benzenesulfonamide,"InChI=1S/C17H15ClN6O5S2/c18-11-1-5-14(6-2-11)31(28,29)24-17(25)23-16-20-10-9-15(22-16)21-12-3-7-13(8-4-12)30(19,26)27/h1-10H,(H2,19,26,27)(H3,20,21,22,23,24,25)",YPWVSRAMWAPSDL-UHFFFAOYSA-N,N[S](=O)(=O)C1=CC=C(NC2=CC=NC(=N2)NC(=O)N[S](=O)(=O)C3=CC=C(Cl)C=C3)C=C1,-4.0,0.0,1,G1
C-2575,gamma-cyclodextrin,"InChI=1S/C48H80O40/c49-1-9-33-17(57)25(65)41(73-9)82-34-10(2-50)75-43(27(67)19(34)59)84-36-12(4-52)77-45(29(69)21(36)61)86-38-14(6-54)79-47(31(71)23(38)63)88-40-16(8-56)80-48(32(72)24(40)64)87-39-15(7-55)78-46(30(70)22(39)62)85-37-13(5-53)76-44(28(68)20(37)60)83-35-11(3-51)74-42(81-33)26(66)18(35)58/h9-72H,1-8H2",GDSRMADSINPKSL-UHFFFAOYSA-N,OCC1OC2OC3C(O)C(O)C(OC3CO)OC4C(O)C(O)C(OC4CO)OC5C(O)C(O)C(OC5CO)OC6C(O)C(O)C(OC6CO)OC7C(O)C(O)C(OC7CO)OC8C(O)C(O)C(OC8CO)OC9C(O)C(O)C(OC9CO)OC1C(O)C2O,-0.75,0.0,1,G1
C-2576,lasinavir,"InChI=1S/C35H53N3O9/c1-22(2)30(33(41)36-15-16-43-6)38-32(40)25(17-24-19-28(44-7)31(46-9)29(20-24)45-8)21-27(39)26(18-23-13-11-10-12-14-23)37-34(42)47-35(3,4)5/h10-14,19-20,22,25-27,30,39H,15-18,21H2,1-9H3,(H,36,41)(H,37,42)(H,38,40)",BQXKPLXLMDOCBL-UHFFFAOYSA-N,COCCNC(=O)C(NC(=O)C(CC(O)C(CC1=CC=CC=C1)NC(=O)OC(C)(C)C)CC2=CC(=C(OC)C(=C2)OC)OC)C(C)C,-4.0,0.0,1,G1
C-2577,carminic  acid,"InChI=1S/C22H20O13/c1-4-8-5(2-6(24)9(4)22(33)34)13(25)10-11(15(8)27)16(28)12(18(30)17(10)29)21-20(32)19(31)14(26)7(3-23)35-21/h2,7,14,19-21,23-24,26,28-32H,3H2,1H3,(H,33,34)",DGQLVPJVXFOQEV-UHFFFAOYSA-N,CC1=C(C(O)=O)C(=CC2=C1C(=O)C3=C(C(=C(O)C(=C3O)C4OC(CO)C(O)C(O)C4O)O)C2=O)O,-2.58,0.0,1,G1
C-2578,2-pentafluorophenylsulfonylamino-4-(4-sulfamoylphenylamino)pyrimidine;  n4-[2-(pentafluorophenylsulfonylamino)pyrimidin-4-yl]sulfanilamide,"InChI=1S/C16H10F5N5O4S2/c17-10-11(18)13(20)15(14(21)12(10)19)32(29,30)26-16-23-6-5-9(25-16)24-7-1-3-8(4-2-7)31(22,27)28/h1-6H,(H2,22,27,28)(H2,23,24,25,26)",OJHDVAOAFKILCS-UHFFFAOYSA-N,N[S](=O)(=O)C1=CC=C(NC2=NC(=NC=C2)N[S](=O)(=O)C3=C(F)C(=C(F)C(=C3F)F)F)C=C1,-1.57,0.0,1,G1
C-2579,sb 209670,"InChI=1S/C29H28O9/c1-3-10-35-18-6-7-19-21(12-18)27(20-8-5-17(34-2)13-23(20)36-14-25(30)31)28(29(32)33)26(19)16-4-9-22-24(11-16)38-15-37-22/h4-9,11-13,26-28H,3,10,14-15H2,1-2H3,(H,30,31)(H,32,33)",UUAVCCWBNUITBB-UHFFFAOYSA-N,CCCOC1=CC=C2C(C(C(C3=CC=C(OC)C=C3OCC(O)=O)C2=C1)C(O)=O)C4=CC5=C(OCO5)C=C4,-6.77,0.0,1,G1
C-2580,dihydroergocristine,"InChI=1S/C35H41N5O5/c1-20(2)34(37-31(41)23-16-25-24-11-7-12-26-30(24)22(18-36-26)17-27(25)38(3)19-23)33(43)40-28(15-21-9-5-4-6-10-21)32(42)39-14-8-13-29(39)35(40,44)45-34/h4-7,9-12,18,20,23,25,27-29,36,44H,8,13-17,19H2,1-3H3,(H,37,41)",DEQITUUQPICUMR-UHFFFAOYSA-N,CC(C)C1(NC(=O)C2CC3C(CC4=C[NH]C5=C4C3=CC=C5)N(C)C2)OC6(O)C7CCCN7C(=O)C(CC8=CC=CC=C8)N6C1=O,-5.27,0.0,1,G1
C-2581,reserpine,"InChI=1S/C33H40N2O9/c1-38-19-7-8-20-21-9-10-35-16-18-13-27(44-32(36)17-11-25(39-2)30(41-4)26(12-17)40-3)31(42-5)28(33(37)43-6)22(18)15-24(35)29(21)34-23(20)14-19/h7-8,11-12,14,18,22,24,27-28,31,34H,9-10,13,15-16H2,1-6H3",QEVHRUUCFGRFIF-UHFFFAOYSA-N,COC1C(CC2CN3CCC4=C([NH]C5=C4C=CC(=C5)OC)C3CC2C1C(=O)OC)OC(=O)C6=CC(=C(OC)C(=C6)OC)OC,-5.97,0.0,1,G1
C-2582,bromadiolone,"InChI=1S/C30H23BrO4/c31-23-16-14-20(15-17-23)19-10-12-22(13-11-19)26(32)18-25(21-6-2-1-3-7-21)28-29(33)24-8-4-5-9-27(24)35-30(28)34/h1-17,25-26,32-33H,18H2",OWNRRUFOJXFKCU-UHFFFAOYSA-N,OC(CC(C1=CC=CC=C1)C2=C(O)C3=C(OC2=O)C=CC=C3)C4=CC=C(C=C4)C5=CC=C(Br)C=C5,-4.45,0.0,1,G1
C-2583,cosalane;  nsc 658586,"InChI=1S/C46H62Cl2O6/c1-26(2)9-7-10-27(3)35-14-15-36-32-13-12-30-25-44(4,19-20-45(30,5)37(32)16-18-46(35,36)6)17-8-11-31(28-21-33(42(51)52)40(49)38(47)23-28)29-22-34(43(53)54)41(50)39(48)24-29/h11,21-24,26-27,30,32,35-37,49-50H,7-10,12-20,25H2,1-6H3,(H,51,52)(H,53,54)",PZHSIUGYACBCPQ-UHFFFAOYSA-N,CC(C)CCCC(C)C1CCC2C3CCC4CC(C)(CCC=C(C5=CC(=C(O)C(=C5)C(O)=O)Cl)C6=CC(=C(O)C(=C6)C(O)=O)Cl)CCC4(C)C3CCC12C,-8.46,0.0,1,G1
C-2584,boc-phe-is-sta-leu-nh(ch2)3n(ch2ch2oh)2 (analog 22),"InChI=1S/C41H68N8O9/c1-27(2)20-31(35(52)24-36(53)45-32(21-28(3)4)37(54)43-14-11-15-49(16-18-50)17-19-51)46-39(56)34(23-30-25-42-26-44-30)47-38(55)33(22-29-12-9-8-10-13-29)48-40(57)58-41(5,6)7/h8-10,12-13,25-28,31-35,50-52H,11,14-24H2,1-7H3,(H,42,44)(H,43,54)(H,45,53)(H,46,56)(H,47,55)(H,48,57)",DZBPOCSWCYBLRC-UHFFFAOYSA-N,CC(C)CC(NC(=O)C(CC1=C[NH]C=N1)NC(=O)C(CC2=CC=CC=C2)NC(=O)OC(C)(C)C)C(O)CC(=O)NC(CC(C)C)C(=O)NCCCN(CCO)CCO,-2.37,0.0,1,G1
C-2585,"boc-phe-his-sta-leu-nh-ch2ch2-ch(nh2)-cooh, analog 16)","InChI=1S/C38H60N8O9/c1-22(2)15-27(31(47)19-32(48)43-28(16-23(3)4)33(49)41-14-13-26(39)36(52)53)44-35(51)30(18-25-20-40-21-42-25)45-34(50)29(17-24-11-9-8-10-12-24)46-37(54)55-38(5,6)7/h8-12,20-23,26-31,47H,13-19,39H2,1-7H3,(H,40,42)(H,41,49)(H,43,48)(H,44,51)(H,45,50)(H,46,54)(H,52,53)",HZMKMSYGVTVKSN-UHFFFAOYSA-N,CC(C)CC(NC(=O)C(CC1=C[NH]C=N1)NC(=O)C(CC2=CC=CC=C2)NC(=O)OC(C)(C)C)C(O)CC(=O)NC(CC(C)C)C(=O)NCCC(N)C(O)=O,-2.22,0.0,1,G1
C-2586,kni-272;  kynostatin,"InChI=1S/C33H41N5O6S2/c1-33(2,3)37-31(42)26-19-46-20-38(26)32(43)29(40)24(15-21-9-6-5-7-10-21)36-30(41)25(18-45-4)35-28(39)17-44-27-12-8-11-22-16-34-14-13-23(22)27/h5-14,16,24-26,29,40H,15,17-20H2,1-4H3,(H,35,39)(H,36,41)(H,37,42)",NJBBLOIWMSYVCQ-UHFFFAOYSA-N,CSCC(NC(=O)COC1=CC=CC2=C1C=CN=C2)C(=O)NC(CC3=CC=CC=C3)C(O)C(=O)N4CSCC4C(=O)NC(C)(C)C,-3.95,0.0,1,G1
C-2587,bromothymol  blue,"InChI=1S/C27H28Br2O5S/c1-13(2)21-18(11-15(5)25(30)23(21)28)27(17-9-7-8-10-20(17)35(32,33)34-27)19-12-16(6)26(31)24(29)22(19)14(3)4/h7-14,30-31H,1-6H3",CJBMVMMYECULNQ-UHFFFAOYSA-N,CC(C)C1=C(Br)C(=C(C)C=C1C2(O[S](=O)(=O)C3=C2C=CC=C3)C4=CC(=C(O)C(=C4C(C)C)Br)C)O,-5.18,0.0,1,G1
C-2588,boc-phe-his-sta-leu-nhch2-4-pyridyl (analog 5),"InChI=1S/C40H58N8O7/c1-25(2)17-30(34(49)21-35(50)45-31(18-26(3)4)36(51)43-22-28-13-15-41-16-14-28)46-38(53)33(20-29-23-42-24-44-29)47-37(52)32(19-27-11-9-8-10-12-27)48-39(54)55-40(5,6)7/h8-16,23-26,30-34,49H,17-22H2,1-7H3,(H,42,44)(H,43,51)(H,45,50)(H,46,53)(H,47,52)(H,48,54)",ULHWJFTZJZSPCG-UHFFFAOYSA-N,CC(C)CC(NC(=O)C(CC1=C[NH]C=N1)NC(=O)C(CC2=CC=CC=C2)NC(=O)OC(C)(C)C)C(O)CC(=O)NC(CC(C)C)C(=O)NCC3=CC=NC=C3,-3.36,0.0,1,G1
C-2589,boc-phe-his-sta-leu-nh2-2-pyridyl (analog 4),"InChI=1S/C40H58N8O7/c1-25(2)17-30(34(49)21-35(50)45-31(18-26(3)4)36(51)43-23-28-15-11-12-16-42-28)46-38(53)33(20-29-22-41-24-44-29)47-37(52)32(19-27-13-9-8-10-14-27)48-39(54)55-40(5,6)7/h8-16,22,24-26,30-34,49H,17-21,23H2,1-7H3,(H,41,44)(H,43,51)(H,45,50)(H,46,53)(H,47,52)(H,48,54)",WFOVKVGGLBZBPE-UHFFFAOYSA-N,CC(C)CC(NC(=O)C(CC1=C[NH]C=N1)NC(=O)C(CC2=CC=CC=C2)NC(=O)OC(C)(C)C)C(O)CC(=O)NC(CC(C)C)C(=O)NCC3=CC=CC=N3,-3.42,0.0,1,G1
C-2590,boc-phe-his-sta-leu-nh-ch2-4-pyridyl-n-oxide;  (analog 7),"InChI=1S/C40H58N8O8/c1-25(2)17-30(34(49)21-35(50)44-31(18-26(3)4)36(51)42-22-28-13-15-48(55)16-14-28)45-38(53)33(20-29-23-41-24-43-29)46-37(52)32(19-27-11-9-8-10-12-27)47-39(54)56-40(5,6)7/h8-16,23-26,30-34,49H,17-22H2,1-7H3,(H,41,43)(H,42,51)(H,44,50)(H,45,53)(H,46,52)(H,47,54)",ZJYMBDYMFYOXJD-UHFFFAOYSA-N,CC(C)CC(NC(=O)C(CC1=C[NH]C=N1)NC(=O)C(CC2=CC=CC=C2)NC(=O)OC(C)(C)C)C(O)CC(=O)NC(CC(C)C)C(=O)NCC3=CC=[N+]([O-])C=C3,-2.38,0.0,1,G1
C-2591,"boc-phe-his-sta-leu-nhch2-ph--3-ch2nh2, analog 11","InChI=1S/C42H62N8O7/c1-26(2)16-32(36(51)21-37(52)47-33(17-27(3)4)38(53)45-23-30-15-11-14-29(18-30)22-43)48-40(55)35(20-31-24-44-25-46-31)49-39(54)34(19-28-12-9-8-10-13-28)50-41(56)57-42(5,6)7/h8-15,18,24-27,32-36,51H,16-17,19-23,43H2,1-7H3,(H,44,46)(H,45,53)(H,47,52)(H,48,55)(H,49,54)(H,50,56)",HCQSWAXEJLAQFZ-UHFFFAOYSA-N,CC(C)CC(NC(=O)C(CC1=C[NH]C=N1)NC(=O)C(CC2=CC=CC=C2)NC(=O)OC(C)(C)C)C(O)CC(=O)NC(CC(C)C)C(=O)NCC3=CC=CC(=C3)CN,-2.85,0.0,1,G1
C-2592,boc-phe-his-sta-leu-nh-ch2-ch(nh2)-2-pyridyl;  (analog 8),"InChI=1S/C41H61N9O7/c1-25(2)17-31(35(51)21-36(52)47-32(18-26(3)4)37(53)45-23-29(42)30-15-11-12-16-44-30)48-39(55)34(20-28-22-43-24-46-28)49-38(54)33(19-27-13-9-8-10-14-27)50-40(56)57-41(5,6)7/h8-16,22,24-26,29,31-35,51H,17-21,23,42H2,1-7H3,(H,43,46)(H,45,53)(H,47,52)(H,48,55)(H,49,54)(H,50,56)",FERFUBSFSRZOBT-UHFFFAOYSA-N,CC(C)CC(NC(=O)C(CC1=C[NH]C=N1)NC(=O)C(CC2=CC=CC=C2)NC(=O)OC(C)(C)C)C(O)CC(=O)NC(CC(C)C)C(=O)NCC(N)C3=CC=CC=N3,-3.4,0.0,1,G1
C-2593,iodipamide;  adipiodone,"InChI=1S/C20H14I6N2O6/c21-7-5-9(23)17(15(25)13(7)19(31)32)27-11(29)3-1-2-4-12(30)28-18-10(24)6-8(22)14(16(18)26)20(33)34/h5-6H,1-4H2,(H,27,29)(H,28,30)(H,31,32)(H,33,34)",FFINMCNLQNTKLU-UHFFFAOYSA-N,OC(=O)C1=C(I)C(=C(I)C=C1I)NC(=O)CCCCC(=O)NC2=C(I)C=C(I)C(=C2I)C(O)=O,-3.39,0.0,1,G1
C-2594,boc-phe-his-achpa-leu-nh-ch2-ph-3-ch2-nh2 (analog 12),"InChI=1S/C45H66N8O7/c1-29(2)19-36(41(56)48-26-33-18-12-17-32(20-33)25-46)50-40(55)24-39(54)35(21-30-13-8-6-9-14-30)51-43(58)38(23-34-27-47-28-49-34)52-42(57)37(22-31-15-10-7-11-16-31)53-44(59)60-45(3,4)5/h7,10-12,15-18,20,27-30,35-39,54H,6,8-9,13-14,19,21-26,46H2,1-5H3,(H,47,49)(H,48,56)(H,50,55)(H,51,58)(H,52,57)(H,53,59)",QIGZLJVYYYXMIH-UHFFFAOYSA-N,CC(C)CC(NC(=O)CC(O)C(CC1CCCCC1)NC(=O)C(CC2=C[NH]C=N2)NC(=O)C(CC3=CC=CC=C3)NC(=O)OC(C)(C)C)C(=O)NCC4=CC=CC(=C4)CN,-4.7,0.0,1,G1
C-2595,"boc-phe-his-sta-leu-nh-chph-cooh, analog 18","InChI=1S/C42H59N7O9/c1-25(2)18-30(34(50)22-35(51)45-31(19-26(3)4)39(54)49-36(40(55)56)28-16-12-9-13-17-28)46-38(53)33(21-29-23-43-24-44-29)47-37(52)32(20-27-14-10-8-11-15-27)48-41(57)58-42(5,6)7/h8-17,23-26,30-34,36,50H,18-22H2,1-7H3,(H,43,44)(H,45,51)(H,46,53)(H,47,52)(H,48,57)(H,49,54)(H,55,56)",XGCDNGBJXXBQKT-UHFFFAOYSA-N,CC(C)CC(NC(=O)C(CC1=C[NH]C=N1)NC(=O)C(CC2=CC=CC=C2)NC(=O)OC(C)(C)C)C(O)CC(=O)NC(CC(C)C)C(=O)NC(C(O)=O)C3=CC=CC=C3,-3.13,0.0,1,G1
C-2596,"l-365,209, analog 2;  (cyclic hexapeptide)","InChI=1S/C42H56N6O6/c1-4-28(2)36-42(54)48-24-14-12-21-34(48)40(52)47-23-13-11-20-33(47)39(51)45(3)35(27-30-18-9-6-10-19-30)41(53)46-25-15-22-32(46)38(50)43-31(37(49)44-36)26-29-16-7-5-8-17-29/h5-10,16-19,28,31-36H,4,11-15,20-27H2,1-3H3,(H,43,50)(H,44,49)",MIAHOWFGIYZPJD-UHFFFAOYSA-N,CCC(C)C1NC(=O)C(CC2=CC=CC=C2)NC(=O)C3CCCN3C(=O)C(CC4=CC=CC=C4)N(C)C(=O)C5CCCCN5C(=O)C6CCCCN6C1=O,-5.57,0.0,1,G1
C-2597,"boc-phe-his-sta-leu-nhch(cooh)ch2-c6h4-3-nh2,  tetrapeptide derivative (15)","InChI=1S/C44H64N8O9/c1-26(2)16-32(37(53)22-38(54)48-33(17-27(3)4)39(55)51-36(42(58)59)20-29-14-11-15-30(18-29)23-45)49-41(57)35(21-31-24-46-25-47-31)50-40(56)34(19-28-12-9-8-10-13-28)52-43(60)61-44(5,6)7/h8-15,18,24-27,32-37,53H,16-17,19-23,45H2,1-7H3,(H,46,47)(H,48,54)(H,49,57)(H,50,56)(H,51,55)(H,52,60)(H,58,59)",LRXFYFDTOXXRTI-UHFFFAOYSA-N,CC(C)CC(NC(=O)C(CC1=C[NH]C=N1)NC(=O)C(CC2=CC=CC=C2)NC(=O)OC(C)(C)C)C(O)CC(=O)NC(CC(C)C)C(=O)NC(CC3=CC(=CC=C3)CN)C(O)=O,-2.82,0.0,1,G1
C-2598,"l-365,209, analog 10;  (cyclic hexapeptide)","InChI=1S/C40H53N9O6/c1-3-24(2)34-40(55)49-17-9-7-14-33(49)39(54)48-16-8-6-13-31(48)37(52)45-30(20-26-22-41-23-43-26)38(53)47-18-10-15-32(47)36(51)44-29(35(50)46-34)19-25-21-42-28-12-5-4-11-27(25)28/h4-5,11-12,21-24,29-34,42H,3,6-10,13-20H2,1-2H3,(H,41,43)(H,44,51)(H,45,52)(H,46,50)",WCNGAVKBHXZVJO-UHFFFAOYSA-N,CCC(C)C1NC(=O)C(CC2=C[NH]C3=C2C=CC=C3)NC(=O)C4CCCN4C(=O)C(CC5=C[NH]C=N5)NC(=O)C6CCCCN6C(=O)C7CCCCN7C1=O,-2.58,0.0,1,G1
C-2599,"l-365,209  (analog 6 );  (cyclic hexapeptide)","InChI=1S/C40H54N8O6/c1-4-26(2)34-40(54)48-32(19-12-22-42-48)37(51)43-29(18-11-21-41)38(52)46(3)33(25-28-16-9-6-10-17-28)39(53)47-23-13-20-31(47)36(50)44-30(35(49)45-34)24-27-14-7-5-8-15-27/h5-10,14-17,22,26,29-34H,4,11-13,18-21,23-25,41H2,1-3H3,(H,43,51)(H,44,50)(H,45,49)",JDOMSHIFFAUNHK-UHFFFAOYSA-N,CCC(C)C1NC(=O)C(CC2=CC=CC=C2)NC(=O)C3CCCN3C(=O)C(CC4=CC=CC=C4)N(C)C(=O)C(CCCN)NC(=O)C5CCC=NN5C1=O,-2.7,0.0,1,G1
C-2600,"l-365,209 -analog 11;  (cyclic hexapeptide)","InChI=1S/C42H54N8O6/c1-3-26(2)36-42(56)50-19-9-7-14-35(50)41(55)49-18-8-6-13-33(49)39(53)46-32(23-30-24-43-25-44-30)40(54)48-20-10-15-34(48)38(52)45-31(37(51)47-36)22-27-16-17-28-11-4-5-12-29(28)21-27/h4-5,11-12,16-17,21,24-26,31-36H,3,6-10,13-15,18-20,22-23H2,1-2H3,(H,43,44)(H,45,52)(H,46,53)(H,47,51)",ILLSOIRJMQNTIA-UHFFFAOYSA-N,CCC(C)C1NC(=O)C(CC2=CC3=C(C=CC=C3)C=C2)NC(=O)C4CCCN4C(=O)C(CC5=C[NH]C=N5)NC(=O)C6CCCCN6C(=O)C7CCCCN7C1=O,-3.98,0.0,1,G1