ID,Name,InChI,InChIKey,SMILES,Solubility,SD,Occurrences,Group
D-1076,minoxidil,"InChI=1S/C9H15N5O/c10-7-6-8(12-9(11)14(7)15)13-4-2-1-3-5-13/h6,11,15H,1-5,10H2",ZIMGGGWCDYVHOY-UHFFFAOYSA-N,NC1=CC(=NC(=N)N1O)N2CCCCC2,-1.982,0.0,1,G1
D-1081,disperse red 9,"InChI=1S/C15H11NO2/c1-16-12-8-4-7-11-13(12)15(18)10-6-3-2-5-9(10)14(11)17/h2-8,16H,1H3",SVTDYSXXLJYUTM-UHFFFAOYSA-N,CNc1cccc2C(=O)c3ccccc3C(=O)c12,-6.3,0.0,1,G1
D-1082,disperse violet 1,"InChI=1S/C14H10N2O2/c15-9-5-6-10(16)12-11(9)13(17)7-3-1-2-4-8(7)14(12)18/h1-6H,15-16H2",FBMQNRKSAWNXBT-UHFFFAOYSA-N,Nc1ccc(N)c2C(=O)c3ccccc3C(=O)c12,-5.859,0.0,1,G1
D-1083,crystal violet (basic violet 3),"InChI=1S/C25H30N3.ClH/c1-26(2)22-13-7-19(8-14-22)25(20-9-15-23(16-10-20)27(3)4)21-11-17-24(18-12-21)28(5)6;/h7-18H,1-6H3;1H/q+1;/p-1",ZXJXZNDDNMQXFV-UHFFFAOYSA-M,[Cl-].CN(C)c1ccc(cc1)[C+](c2ccc(cc2)N(C)C)c3ccc(cc3)N(C)C,-2.009,0.0,1,G1
D-1084,disperse red 11,"InChI=1S/C15H12N2O3/c1-20-10-6-9(16)11-12(13(10)17)15(19)8-5-3-2-4-7(8)14(11)18/h2-6H,16-17H2,1H3",TUXJTJITXCHUEL-UHFFFAOYSA-N,COc1cc(N)c2C(=O)c3ccccc3C(=O)c2c1N,-5.746,0.0,1,G1
D-1085,disperse red 1,"InChI=1S/C16H18N4O3/c1-2-19(11-12-21)15-7-3-13(4-8-15)17-18-14-5-9-16(10-6-14)20(22)23/h3-10,21H,2,11-12H2,1H3",FOQABOMYTOFLPZ-UHFFFAOYSA-N,CCN(CCO)c1ccc(cc1)N=Nc2ccc(cc2)[N+]([O-])=O,-6.292999999999999,0.0,1,G1
D-1086,disperse red 5,"InChI=1S/C17H19ClN4O4/c1-12-10-13(21(6-8-23)7-9-24)2-4-16(12)19-20-17-5-3-14(22(25)26)11-15(17)18/h2-5,10-11,23-24H,6-9H2,1H3",NBEXAEYARUBYDV-UHFFFAOYSA-N,Cc1cc(ccc1N=Nc2ccc(cc2Cl)[N+]([O-])=O)N(CCO)CCO,-6.57,0.0,1,G1
D-1087,c.i. disperse yellow 42,"InChI=1S/C18H15N3O4S/c22-21(23)18-13-16(26(24,25)20-15-9-5-2-6-10-15)11-12-17(18)19-14-7-3-1-4-8-14/h1-13,19-20H",BBFRYSKTTHYWQZ-UHFFFAOYSA-N,[O-][N+](=O)c1cc(ccc1Nc2ccccc2)[S](=O)(=O)Nc3ccccc3,-6.269,0.0,1,G1
D-1088,azo dye n9,"InChI=1S/C17H16ClN5O3/c18-16-12-15(23(25)26)6-7-17(16)21-20-13-2-4-14(5-3-13)22(10-11-24)9-1-8-19/h2-7,12,24H,1,9-11H2",UHWBGWWOTKVSDD-UHFFFAOYSA-N,OCCN(CCC#N)c1ccc(cc1)N=Nc2ccc(cc2Cl)[N+]([O-])=O,-6.13,0.0,1,G1
D-1089,solvent yellow 33,"InChI=1S/C18H11NO2/c20-17-12-6-2-3-7-13(12)18(21)16(17)15-10-9-11-5-1-4-8-14(11)19-15/h1-10,16H",IZMJMCDDWKSTTK-UHFFFAOYSA-N,O=C1C(c2ccc3ccccc3n2)C(=O)c4ccccc14,-6.209,0.0,1,G1
D-1091,azo dye n2,"InChI=1S/C15H12ClN5O4/c1-3-20-14(22)10(7-17)8(2)13(15(20)23)19-18-11-5-4-9(16)6-12(11)21(24)25/h4-6,18H,3H2,1-2H3/b19-13+",PJLZYPHMHUHUMN-CPNJWEJPSA-N,CCN1C(=O)C(=N/Nc2ccc(Cl)cc2[N+]([O-])=O)/C(=C(C#N)C1=O)C,-6.69,0.0,1,G1
D-1092,dexamethasone,"InChI=1S/C22H29FO5/c1-12-8-16-15-5-4-13-9-14(25)6-7-19(13,2)21(15,23)17(26)10-20(16,3)22(12,28)18(27)11-24/h6-7,9,12,15-17,24,26,28H,4-5,8,10-11H2,1-3H3/t12-,15+,16+,17+,19+,20+,21+,22+/m1/s1",UREBDLICKHMUKA-CXSFZGCWSA-N,C[C@@H]1C[C@H]2[C@@H]3CCC4=CC(=O)C=C[C@]4(C)[C@@]3(F)[C@@H](O)C[C@]2(C)[C@@]1(O)C(=O)CO,-3.6439999999999997,0.0,1,G1
D-1093,hydrocortisone acetate,"InChI=1S/C23H32O6/c1-13(24)29-12-19(27)23(28)9-7-17-16-5-4-14-10-15(25)6-8-21(14,2)20(16)18(26)11-22(17,23)3/h10,16-18,20,26,28H,4-9,11-12H2,1-3H3/t16-,17-,18-,20+,21-,22-,23-/m0/s1",ALEXXDVDDISNDU-JZYPGELDSA-N,CC(=O)OCC(=O)[C@@]1(O)CC[C@H]2[C@@H]3CCC4=CC(=O)CC[C@]4(C)[C@H]3[C@@H](O)C[C@]12C,-4.458,0.0,1,G1
D-1094,cortisone acetate,"InChI=1S/C23H30O6/c1-13(24)29-12-19(27)23(28)9-7-17-16-5-4-14-10-15(25)6-8-21(14,2)20(16)18(26)11-22(17,23)3/h10,16-17,20,28H,4-9,11-12H2,1-3H3/t16-,17-,20+,21-,22-,23-/m0/s1",ITRJWOMZKQRYTA-RFZYENFJSA-N,CC(=O)OCC(=O)[C@@]1(O)CC[C@H]2[C@@H]3CCC4=CC(=O)CC[C@]4(C)[C@H]3C(=O)C[C@]12C,-4.303999999999999,0.0,1,G1
D-1095,corticosterone,"InChI=1S/C21H30O4/c1-20-8-7-13(23)9-12(20)3-4-14-15-5-6-16(18(25)11-22)21(15,2)10-17(24)19(14)20/h9,14-17,19,22,24H,3-8,10-11H2,1-2H3/t14-,15-,16+,17-,19+,20-,21-/m0/s1",OMFXVFTZEKFJBZ-HJTSIMOOSA-N,C[C@]12C[C@H](O)[C@H]3[C@@H](CCC4=CC(=O)CC[C@]34C)[C@@H]1CC[C@@H]2C(=O)CO,-3.241,0.0,1,G1
D-1096,hydrocortisone,"InChI=1S/C21H30O5/c1-19-7-5-13(23)9-12(19)3-4-14-15-6-8-21(26,17(25)11-22)20(15,2)10-16(24)18(14)19/h9,14-16,18,22,24,26H,3-8,10-11H2,1-2H3/t14-,15-,16-,18+,19-,20-,21-/m0/s1",JYGXADMDTFJGBT-VWUMJDOOSA-N,C[C@]12CCC(=O)C=C1CC[C@H]3[C@@H]4CC[C@](O)(C(=O)CO)[C@@]4(C)C[C@H](O)[C@H]23,-3.054,0.0,1,G1
D-1097,prednisolone,"InChI=1S/C21H28O5/c1-19-7-5-13(23)9-12(19)3-4-14-15-6-8-21(26,17(25)11-22)20(15,2)10-16(24)18(14)19/h5,7,9,14-16,18,22,24,26H,3-4,6,8,10-11H2,1-2H3/t14-,15-,16-,18+,19-,20-,21-/m0/s1",OIGNJSKKLXVSLS-VWUMJDOOSA-N,C[C@]12C[C@H](O)[C@H]3[C@@H](CCC4=CC(=O)C=C[C@]34C)[C@@H]1CC[C@]2(O)C(=O)CO,-3.2089999999999996,0.0,1,G1
D-1098,spironolactone,"InChI=1S/C24H32O4S/c1-14(25)29-19-13-15-12-16(26)4-8-22(15,2)17-5-9-23(3)18(21(17)19)6-10-24(23)11-7-20(27)28-24/h12,17-19,21H,4-11,13H2,1-3H3/t17-,18-,19+,21+,22-,23-,24+/m0/s1",LXMSZDCAJNLERA-ZHYRCANASA-N,CC(=O)S[C@@H]1CC2=CC(=O)CC[C@]2(C)[C@H]3CC[C@@]4(C)[C@@H](CC[C@@]45CCC(=O)O5)[C@H]13,-4.277,0.0,1,G1
D-1099,prednisolone acetate,"InChI=1S/C23H30O6/c1-13(24)29-12-19(27)23(28)9-7-17-16-5-4-14-10-15(25)6-8-21(14,2)20(16)18(26)11-22(17,23)3/h6,8,10,16-18,20,26,28H,4-5,7,9,11-12H2,1-3H3/t16-,17-,18-,20+,21-,22-,23-/m0/s1",LRJOMUJRLNCICJ-JZYPGELDSA-N,CC(=O)OCC(=O)[C@@]1(O)CC[C@H]2[C@@H]3CCC4=CC(=O)C=C[C@]4(C)[C@H]3[C@@H](O)C[C@]12C,-4.369,0.0,1,G1
D-1100,cortisone,"InChI=1S/C21H28O5/c1-19-7-5-13(23)9-12(19)3-4-14-15-6-8-21(26,17(25)11-22)20(15,2)10-16(24)18(14)19/h9,14-15,18,22,26H,3-8,10-11H2,1-2H3/t14-,15-,18+,19-,20-,21-/m0/s1",MFYSYFVPBJMHGN-ZPOLXVRWSA-N,C[C@]12CCC(=O)C=C1CC[C@H]3[C@@H]4CC[C@](O)(C(=O)CO)[C@@]4(C)CC(=O)[C@H]23,-3.11,0.0,1,G1
D-1101,estrone,"InChI=1S/C18H22O2/c1-18-9-8-14-13-5-3-12(19)10-11(13)2-4-15(14)16(18)6-7-17(18)20/h3,5,10,14-16,19H,2,4,6-9H2,1H3/t14-,15-,16+,18+/m1/s1",DNXHEGUUPJUMQT-CBZIJGRNSA-N,C[C@]12CC[C@H]3[C@@H](CCc4cc(O)ccc34)[C@@H]1CCC2=O,-3.955,0.0,1,G1
D-1102,deoxycorticosterone acetate,"InChI=1S/C23H32O4/c1-14(24)27-13-21(26)20-7-6-18-17-5-4-15-12-16(25)8-10-22(15,2)19(17)9-11-23(18,20)3/h12,17-20H,4-11,13H2,1-3H3/t17-,18-,19-,20+,22-,23-/m0/s1",VPGRYOFKCNULNK-ACXQXYJUSA-N,CC(=O)OCC(=O)[C@H]1CC[C@H]2[C@@H]3CCC4=CC(=O)CC[C@]4(C)[C@H]3CC[C@]12C,-4.63,0.0,1,G1
D-1103,progesterone,"InChI=1S/C21H30O2/c1-13(22)17-6-7-18-16-5-4-14-12-15(23)8-10-20(14,2)19(16)9-11-21(17,18)3/h12,16-19H,4-11H2,1-3H3/t16-,17+,18-,19-,20-,21+/m0/s1",RJKFOVLPORLFTN-LEKSSAKUSA-N,CC(=O)[C@H]1CC[C@H]2[C@@H]3CCC4=CC(=O)CC[C@]4(C)[C@H]3CC[C@]12C,-4.553,0.0,1,G1
D-1104,17-methyltestosterone,"InChI=1S/C20H30O2/c1-18-9-6-14(21)12-13(18)4-5-15-16(18)7-10-19(2)17(15)8-11-20(19,3)22/h12,15-17,22H,4-11H2,1-3H3/t15-,16+,17+,18+,19+,20+/m1/s1",GCKMFJBGXUYNAG-HLXURNFRSA-N,C[C@]1(O)CC[C@H]2[C@@H]3CCC4=CC(=O)CC[C@]4(C)[C@H]3CC[C@]12C,-3.95,0.0,1,G1
D-1105,testosterone,"InChI=1S/C19H28O2/c1-18-9-7-13(20)11-12(18)3-4-14-15-5-6-17(21)19(15,2)10-8-16(14)18/h11,14-17,21H,3-10H2,1-2H3/t14-,15-,16-,17-,18-,19-/m0/s1",MUMGGOZAMZWBJJ-DYKIIFRCSA-N,C[C@]12CC[C@H]3[C@@H](CCC4=CC(=O)CC[C@]34C)[C@@H]1CC[C@@H]2O,-4.091,0.0,1,G1
D-1106,androstenedione,"InChI=1S/C19H26O2/c1-18-9-7-13(20)11-12(18)3-4-14-15-5-6-17(21)19(15,2)10-8-16(14)18/h11,14-16H,3-10H2,1-2H3/t14-,15-,16-,18-,19-/m0/s1",AEMFNILZOJDQLW-QAGGRKNESA-N,C[C@]12CC[C@H]3[C@@H](CCC4=CC(=O)CC[C@]34C)[C@@H]1CCC2=O,-3.695,0.0,1,G1
D-1107,deoxycorticosterone,"InChI=1S/C21H30O3/c1-20-9-7-14(23)11-13(20)3-4-15-16-5-6-18(19(24)12-22)21(16,2)10-8-17(15)20/h11,15-18,22H,3-10,12H2,1-2H3/t15-,16-,17-,18+,20-,21-/m0/s1",ZESRJSPZRDMNHY-YFWFAHHUSA-N,C[C@]12CC[C@H]3[C@@H](CCC4=CC(=O)CC[C@]34C)[C@@H]1CC[C@@H]2C(=O)CO,-3.745,0.0,1,G1
D-1108,triamcinolone diacetate,"InChI=1S/C25H31FO8/c1-13(27)33-12-20(31)25(32)21(34-14(2)28)10-18-17-6-5-15-9-16(29)7-8-22(15,3)24(17,26)19(30)11-23(18,25)4/h7-9,17-19,21,30,32H,5-6,10-12H2,1-4H3/t17-,18-,19-,21+,22-,23-,24-,25+/m0/s1",XGMPVBXKDAHORN-RBWIMXSLSA-N,CC(=O)OCC(=O)[C@@]1(O)[C@@H](C[C@H]2[C@@H]3CCC4=CC(=O)C=C[C@]4(C)[C@@]3(F)[C@@H](O)C[C@]12C)OC(C)=O,-4.13,0.0,1,G1
D-1109,17-alpha-hydroxyprogesterone,"InChI=1S/C21H30O3/c1-13(22)21(24)11-8-18-16-5-4-14-12-15(23)6-9-19(14,2)17(16)7-10-20(18,21)3/h12,16-18,24H,4-11H2,1-3H3/t16-,17+,18+,19+,20+,21+/m1/s1",DBPWSSGDRRHUNT-CEGNMAFCSA-N,CC(=O)[C@@]1(O)CC[C@H]2[C@@H]3CCC4=CC(=O)CC[C@]4(C)[C@H]3CC[C@]12C,-4.708,0.0,1,G1
D-1110,triamcinolone acetonide,"InChI=1S/C24H31FO6/c1-20(2)30-19-10-16-15-6-5-13-9-14(27)7-8-21(13,3)23(15,25)17(28)11-22(16,4)24(19,31-20)18(29)12-26/h7-9,15-17,19,26,28H,5-6,10-12H2,1-4H3/t15-,16-,17-,19+,21-,22-,23-,24+/m0/s1",YNDXUCZADRHECN-JNQJZLCISA-N,CC1(C)O[C@@H]2C[C@H]3[C@@H]4CCC5=CC(=O)C=C[C@]5(C)[C@@]4(F)[C@@H](O)C[C@]3(C)[C@@]2(O1)C(=O)CO,-4.316,0.0,1,G1
D-1111,triamcinolone,"InChI=1S/C21H27FO6/c1-18-6-5-12(24)7-11(18)3-4-13-14-8-15(25)21(28,17(27)10-23)19(14,2)9-16(26)20(13,18)22/h5-7,13-16,23,25-26,28H,3-4,8-10H2,1-2H3/t13-,14-,15+,16-,18-,19-,20-,21-/m0/s1",GFNANZIMVAIWHM-OBYCQNJPSA-N,C[C@]12C[C@H](O)[C@@]3(F)[C@@H](CCC4=CC(=O)C=C[C@]34C)[C@@H]1C[C@@H](O)[C@]2(O)C(=O)CO,-3.693,0.0,1,G1
D-1112,fludrocortisone,"InChI=1S/C21H29FO5/c1-18-7-5-13(24)9-12(18)3-4-15-14-6-8-20(27,17(26)11-23)19(14,2)10-16(25)21(15,18)22/h9,14-16,23,25,27H,3-8,10-11H2,1-2H3/t14-,15-,16-,18-,19-,20-,21-/m0/s1",AAXVEMMRQDVLJB-BULBTXNYSA-N,C[C@]12C[C@H](O)[C@@]3(F)[C@@H](CCC4=CC(=O)CC[C@]34C)[C@@H]1CC[C@]2(O)C(=O)CO,-3.4339999999999997,0.0,1,G1
D-1113,betamethasone,"InChI=1S/C22H29FO5/c1-12-8-16-15-5-4-13-9-14(25)6-7-19(13,2)21(15,23)17(26)10-20(16,3)22(12,28)18(27)11-24/h6-7,9,12,15-17,24,26,28H,4-5,8,10-11H2,1-3H3/t12-,15-,16-,17-,19-,20-,21-,22-/m0/s1",UREBDLICKHMUKA-DVTGEIKXSA-N,C[C@H]1C[C@H]2[C@@H]3CCC4=CC(=O)C=C[C@]4(C)[C@@]3(F)[C@@H](O)C[C@]2(C)[C@@]1(O)C(=O)CO,-3.7710000000000004,0.0,1,G1
D-1114,fluoromethalone,"InChI=1S/C22H29FO4/c1-12-9-17-15-6-8-21(27,13(2)24)20(15,4)11-18(26)22(17,23)19(3)7-5-14(25)10-16(12)19/h5,7,10,12,15,17-18,26-27H,6,8-9,11H2,1-4H3/t12-,15-,17-,18-,19-,20-,21-,22-/m0/s1",FAOZLTXFLGPHNG-KNAQIMQKSA-N,C[C@H]1C[C@H]2[C@@H]3CC[C@](O)(C(C)=O)[C@@]3(C)C[C@H](O)[C@]2(F)[C@@]4(C)C=CC(=O)C=C14,-4.099,0.0,1,G1
D-1115,dexamethasone acetate,"InChI=1S/C24H31FO6/c1-13-9-18-17-6-5-15-10-16(27)7-8-21(15,3)23(17,25)19(28)11-22(18,4)24(13,30)20(29)12-31-14(2)26/h7-8,10,13,17-19,28,30H,5-6,9,11-12H2,1-4H3/t13-,17+,18+,19+,21+,22+,23+,24+/m1/s1",AKUJBENLRBOFTD-RPRRAYFGSA-N,C[C@@H]1C[C@H]2[C@@H]3CCC4=CC(=O)C=C[C@]4(C)[C@@]3(F)[C@@H](O)C[C@]2(C)[C@@]1(O)C(=O)COC(C)=O,-4.9,0.0,1,G1
D-1116,betamethasone-17-valerate,"InChI=1S/C27H37FO6/c1-5-6-7-23(33)34-27(22(32)15-29)16(2)12-20-19-9-8-17-13-18(30)10-11-24(17,3)26(19,28)21(31)14-25(20,27)4/h10-11,13,16,19-21,29,31H,5-9,12,14-15H2,1-4H3/t16-,19-,20-,21-,24-,25-,26-,27-/m0/s1",SNHRLVCMMWUAJD-SUYDQAKGSA-N,CCCCC(=O)O[C@@]1([C@@H](C)C[C@H]2[C@@H]3CCC4=CC(=O)C=C[C@]4(C)[C@@]3(F)[C@@H](O)C[C@]12C)C(=O)CO,-4.71,0.0,1,G1
D-1118,cycloleucine,"InChI=1S/C6H11NO2/c7-6(5(8)9)3-1-2-4-6/h1-4,7H2,(H,8,9)",NILQLFBWTXNUOE-UHFFFAOYSA-N,NC1(CCCC1)C(O)=O,-0.41200000000000003,0.0,1,G1
D-1119,4-aminobutyric acid,"InChI=1S/C4H9NO2/c5-3-1-2-4(6)7/h1-3,5H2,(H,6,7)",BTCSSZJGUNDROE-UHFFFAOYSA-N,NCCCC(O)=O,1.101,0.0,1,G1
D-1129,quinoline,InChI=1S/C9H7N/c1-2-6-9-8(4-1)5-3-7-10-9/h1-7H,SMWDFEZZVXVKRB-UHFFFAOYSA-N,c1ccc2ncccc2c1,-1.325,0.012499999999999956,2,G3
D-1130,benzoguanamine,"InChI=1S/C9H9N5/c10-8-12-7(13-9(11)14-8)6-4-2-1-3-5-6/h1-5H,(H4,10,11,12,13,14)",GZVHEAJQGPRDLQ-UHFFFAOYSA-N,Nc1nc(N)nc(n1)c2ccccc2,-2.494,0.0,1,G1
D-1135,2-hydroxymethylfuran,"InChI=1S/C5H6O2/c6-4-5-2-1-3-7-5/h1-3,6H,4H2",XPFVYQJUAUNWIW-UHFFFAOYSA-N,OCc1occc1,1.008,0.0,1,G1
D-1136,pyrrole,InChI=1S/C4H5N/c1-2-4-5-3-1/h1-5H,KAESVJOAVNADME-UHFFFAOYSA-N,[nH]1cccc1,-0.17300000000000001,0.0,1,G1
D-1149,2-methylfuran,"InChI=1S/C5H6O/c1-5-3-2-4-6-5/h2-4H,1H3",VQKFNUFAXTZWDK-UHFFFAOYSA-N,Cc1occc1,-1.4369999999999998,0.0,1,G1
D-1152,2-(methoxymethyl)-5-no2 furan,"InChI=1S/C6H7NO4/c1-10-4-5-2-3-6(11-5)7(8)9/h2-3H,4H2,1H3",JXUMCVDPMJWGSI-UHFFFAOYSA-N,COCc1oc(cc1)[N+]([O-])=O,-1.155,0.0,1,G1
D-1154,2-methylthiobenzothiazole,"InChI=1S/C8H7NS2/c1-10-8-9-6-4-2-3-5-7(6)11-8/h2-5H,1H3",UTBVIMLZIRIFFR-UHFFFAOYSA-N,CSc1sc2ccccc2n1,-3.161,0.0,1,G1
D-1156,2-aminomethylfuran,"InChI=1S/C5H7NO/c6-4-5-2-1-3-7-5/h1-3H,4,6H2",DDRPCXLAQZKBJP-UHFFFAOYSA-N,NCc1occc1,1.013,0.0,1,G1
D-1157,hexamethylmelamine,InChI=1S/C9H18N6/c1-13(2)7-10-8(14(3)4)12-9(11-7)15(5)6/h1-6H3,UUVWYPNAQBNQJQ-UHFFFAOYSA-N,CN(C)c1nc(nc(n1)N(C)C)N(C)C,-3.364,0.008000000000000007,2,G3
D-1160,"n(26dimeph)-n-(2furanoyl)alanine,me","InChI=1S/C17H19NO4/c1-11-7-5-8-12(2)15(11)18(13(3)17(20)21-4)16(19)14-9-6-10-22-14/h5-10,13H,1-4H3",CIEXPHRYOLIQQD-UHFFFAOYSA-N,COC(=O)C(C)N(C(=O)c1occc1)c2c(C)cccc2C,-3.117,0.0,1,G1
D-1161,thiourea,"InChI=1S/CH4N2S/c2-1(3)4/h(H4,2,3,4)",UMGDCJDMYOKAJW-UHFFFAOYSA-N,NC(N)=S,0.271,0.1220937708848772,3,G5
D-1164,n-phenylthiourea,"InChI=1S/C7H8N2S/c8-7(10)9-6-4-2-1-3-5-6/h1-5H,(H3,8,9,10)",FULZLIGZKMKICU-UHFFFAOYSA-N,NC(=S)Nc1ccccc1,-1.79,0.010000000000000009,2,G3
D-1166,sucrose,"InChI=1S/C12H22O11/c13-1-4-6(16)8(18)9(19)11(21-4)23-12(3-15)10(20)7(17)5(2-14)22-12/h4-11,13-20H,1-3H2/t4-,5-,6-,7-,8+,9-,10+,11-,12+/m1/s1",CZMRCDWAGMRECN-UGDNZRGBSA-N,OC[C@H]1O[C@H](O[C@]2(CO)O[C@H](CO)[C@@H](O)[C@@H]2O)[C@H](O)[C@@H](O)[C@@H]1O,0.7879999999999999,0.0,1,G1
D-1167,"1,2-propanediol","InChI=1S/C3H8O2/c1-3(5)2-4/h3-5H,2H2,1H3",DNIAPMSPPWPWGF-UHFFFAOYSA-N,CC(O)CO,1.119,0.0,1,G1
D-1169,"1,1,1-tris(hydroxymethyl)propane","InChI=1S/C6H14O3/c1-2-6(3-7,4-8)5-9/h7-9H,2-5H2,1H3",ZJCCRDAZUWHFQH-UHFFFAOYSA-N,CCC(CO)(CO)CO,0.872,0.0,1,G1
D-1170,dipropylene glycol,"InChI=1S/C6H14O3/c1-5(8)4-9-6(2)3-7/h5-8H,3-4H2,1-2H3",DUFKCOQISQKSAV-UHFFFAOYSA-N,CC(O)COC(C)CO,0.872,0.0,1,G1
D-1171,ethylene glycol,"InChI=1S/C2H6O2/c3-1-2-4/h3-4H,1-2H2",LYCAIKOWRPUZTN-UHFFFAOYSA-N,OCCO,1.207,0.5635,2,G2
D-1173,diethanolamine,"InChI=1S/C4H11NO2/c6-3-1-5-2-4-7/h5-7H,1-4H2",ZBCBWPMODOFKDW-UHFFFAOYSA-N,OCCNCCO,0.978,0.0,1,G1
D-1175,arabinose,"InChI=1S/C5H10O5/c6-2-1-10-5(9)4(8)3(2)7/h2-9H,1H2",SRBFZHDQGSBBOR-UHFFFAOYSA-N,OC1COC(O)C(O)C1O,0.564,0.15761583042321609,4,G5
D-1176,"2,3-butanediol","InChI=1S/C4H10O2/c1-3(5)4(2)6/h3-6H,1-2H3/t3-,4+",OWBTYPJTUOEWEK-ZXZARUISSA-N,C[C@@H](O)[C@H](C)O,1.045,0.0,1,G1
D-1177,"1,3-propanediol, 2,2-bis(brme)-","InChI=1S/C5H10Br2O2/c6-1-5(2-7,3-8)4-9/h8-9H,1-4H2",CHUGKEQJSLOLHL-UHFFFAOYSA-N,OCC(CO)(CBr)CBr,-0.838,0.0,1,G1
D-1178,thioacetamide,"InChI=1S/C2H5NS/c1-2(3)4/h1H3,(H2,3,4)",YUKQRDCYNOVPGJ-UHFFFAOYSA-N,CC(N)=S,0.336,0.0,1,G1
D-1179,diethyl sulfate,"InChI=1S/C4H10O4S/c1-3-7-9(5,6)8-4-2/h3-4H2,1-2H3",DENRZWYUOJLTMF-UHFFFAOYSA-N,CCO[S](=O)(=O)OCC,-1.3430000000000002,0.0,1,G1
D-1180,dimethyl sulfoxide,InChI=1S/C2H6OS/c1-4(2)3/h1-2H3,IAZDPXIOMUYVGZ-UHFFFAOYSA-N,C[S](C)=O,1.107,0.0,1,G1
D-1181,mercaptoacetic acid,"InChI=1S/C2H4O2S/c3-2(4)1-5/h5H,1H2,(H,3,4)",CWERGRDVMFNCDR-UHFFFAOYSA-N,OC(=O)CS,1.036,0.0,1,G1
D-1182,carbon disulfide,InChI=1S/CS2/c2-1-3,QGJOPFRUJISHPQ-UHFFFAOYSA-N,S=C=S,-1.81,0.0,1,G1
D-1183,dimethylsulfate,"InChI=1S/C2H6O4S/c1-5-7(3,4)6-2/h1-2H3",VAYGXNSJCAHWJZ-UHFFFAOYSA-N,CO[S](=O)(=O)OC,-0.654,0.0,1,G1
D-1187,diethylsulfide,"InChI=1S/C4H10S/c1-3-5-4-2/h3-4H2,1-2H3",LJSQFQKUNVCTIA-UHFFFAOYSA-N,CCSCC,-1.46,0.05999999999999994,2,G3
D-1188,fluoromethyl sulfone,"InChI=1S/CH3FO2S/c1-5(2,3)4/h1H3",KNWQLFOXPQZGPX-UHFFFAOYSA-N,C[S](F)(=O)=O,-0.515,0.0,1,G1
D-1190,triphenylphosphate,"InChI=1S/C18H15O4P/c19-23(20-16-10-4-1-5-11-16,21-17-12-6-2-7-13-17)22-18-14-8-3-9-15-18/h1-15H",XZZNDPSIHUTMOC-UHFFFAOYSA-N,O=[P](Oc1ccccc1)(Oc2ccccc2)Oc3ccccc3,-5.235,0.2124999999999999,2,G3
D-1191,tributylphosphate,"InChI=1S/C12H27O4P/c1-4-7-10-14-17(13,15-11-8-5-2)16-12-9-6-3/h4-12H2,1-3H3",STCOOQWBFONSKY-UHFFFAOYSA-N,CCCCO[P](=O)(OCCCC)OCCCC,-2.978,0.0,1,G1
D-1192,trimethyl phosphate,"InChI=1S/C3H9O4P/c1-5-8(4,6-2)7-3/h1-3H3",WVLBCYQITXONBZ-UHFFFAOYSA-N,CO[P](=O)(OC)OC,0.5529999999999999,0.0,1,G1
D-1193,hexamethylphosphoramide,"InChI=1S/C6H18N3OP/c1-7(2)11(10,8(3)4)9(5)6/h1-6H3",GNOIPBMMFNIUFM-UHFFFAOYSA-N,CN(C)[P](=O)(N(C)C)N(C)C,0.747,0.0,1,G1
D-1194,dimethyl methylphosphonate,"InChI=1S/C3H9O3P/c1-5-7(3,4)6-2/h1-3H3",VONWDASPFIQPDY-UHFFFAOYSA-N,CO[P](C)(=O)OC,0.9059999999999999,0.0,1,G1
D-1195,diisopropyl methylphosphonate,"InChI=1S/C7H17O3P/c1-6(2)9-11(5,8)10-7(3)4/h6-7H,1-5H3",WOAFDHWYKSOANX-UHFFFAOYSA-N,CC(C)O[P](C)(=O)OC(C)C,-0.052000000000000005,0.0,1,G1
D-1198,1-methylnaphthalene,"InChI=1S/C11H10/c1-9-5-4-7-10-6-2-3-8-11(9)10/h2-8H,1H3",QPUYECUOLPXSFR-UHFFFAOYSA-N,Cc1cccc2ccccc12,-3.741,0.023338094752285626,3,G5
D-1199,1-chloronaphthalene,InChI=1S/C10H7Cl/c11-10-7-3-5-8-4-1-2-6-9(8)10/h1-7H,JTPNRXUCIXHOKM-UHFFFAOYSA-N,Clc1cccc2ccccc12,-3.971,0.020499999999999963,2,G3
D-1201,"1-naphthalenamine, n-phenyl-","InChI=1S/C16H13N/c1-2-9-14(10-3-1)17-16-12-6-8-13-7-4-5-11-15(13)16/h1-12,17H",XQVWYOYUZDUNRW-UHFFFAOYSA-N,N(c1ccccc1)c2cccc3ccccc23,-3.563,0.0,1,G1
D-1202,naphthalene,InChI=1S/C10H8/c1-2-6-10-8-4-3-7-9(10)5-1/h1-8H,UFWIBTONFRDIAS-UHFFFAOYSA-N,c1ccc2ccccc2c1,-3.616,0.07664637412602543,3,G5
D-1209,"1,8-diaminonaphthalene","InChI=1S/C10H10N2/c11-8-5-1-3-7-4-2-6-9(12)10(7)8/h1-6H,11-12H2",YFOOEYJGMMJJLS-UHFFFAOYSA-N,Nc1cccc2cccc(N)c12,-2.27,0.0,1,G1
D-1216,"2,6-dihydroxynaphthalene","InChI=1S/C10H8O2/c11-9-3-1-7-5-10(12)4-2-8(7)6-9/h1-6,11-12H",MNZMMCVIXORAQL-UHFFFAOYSA-N,Oc1ccc2cc(O)ccc2c1,-2.205,0.0,1,G1
D-1217,2-nitronaphthalene,InChI=1S/C10H7NO2/c12-11(13)10-6-5-8-3-1-2-4-9(8)7-10/h1-7H,ZJYJZEAJZXVAMF-UHFFFAOYSA-N,[O-][N+](=O)c1ccc2ccccc2c1,-4.273,0.0,1,G1
D-1218,"2,3,6-trimethylnaphthalene","InChI=1S/C13H14/c1-9-4-5-12-7-10(2)11(3)8-13(12)6-9/h4-8H,1-3H3",UNBZRJCHIWTUHB-UHFFFAOYSA-N,Cc1ccc2cc(C)c(C)cc2c1,-5.001,0.0,1,G1
D-1228,"1,5-naphthalenediamine","InChI=1S/C10H10N2/c11-9-5-1-3-7-8(9)4-2-6-10(7)12/h1-6H,11-12H2",KQSABULTKYLFEV-UHFFFAOYSA-N,Nc1cccc2c(N)cccc12,-2.6189999999999998,0.0,1,G1
D-1235,cholic acid,"InChI=1S/C24H40O5/c1-13(4-7-21(28)29)16-5-6-17-22-18(12-20(27)24(16,17)3)23(2)9-8-15(25)10-14(23)11-19(22)26/h13-20,22,25-27H,4-12H2,1-3H3,(H,28,29)/t13-,14+,15-,16-,17+,18+,19-,20+,22+,23+,24-/m1/s1",BHQCQFFYRZLCQQ-OELDTZBJSA-N,C[C@H](CCC(O)=O)[C@H]1CC[C@H]2[C@@H]3[C@H](O)C[C@@H]4C[C@H](O)CC[C@]4(C)[C@H]3C[C@H](O)[C@]12C,-3.3680000000000003,0.0,1,G1
D-1236,deoxycholic acid,"InChI=1S/C24H40O4/c1-14(4-9-22(27)28)18-7-8-19-17-6-5-15-12-16(25)10-11-23(15,2)20(17)13-21(26)24(18,19)3/h14-21,25-26H,4-13H2,1-3H3,(H,27,28)/t14-,15-,16-,17+,18-,19+,20+,21+,23+,24-/m1/s1",KXGVEGMKQFWNSR-LLQZFEROSA-N,C[C@H](CCC(O)=O)[C@H]1CC[C@H]2[C@@H]3CC[C@@H]4C[C@H](O)CC[C@]4(C)[C@H]3C[C@H](O)[C@]12C,-3.9539999999999997,0.0,1,G1
D-1237,ursodeoxycholic acid,"InChI=1S/C24H40O4/c1-14(4-7-21(27)28)17-5-6-18-22-19(9-11-24(17,18)3)23(2)10-8-16(25)12-15(23)13-20(22)26/h14-20,22,25-26H,4-13H2,1-3H3,(H,27,28)/t14-,15+,16-,17-,18+,19+,20+,22+,23+,24-/m1/s1",RUDATBOHQWOJDD-UZVSRGJWSA-N,C[C@H](CCC(O)=O)[C@H]1CC[C@H]2[C@@H]3[C@@H](O)C[C@@H]4C[C@H](O)CC[C@]4(C)[C@H]3CC[C@]12C,-4.293,0.0,1,G1
D-1238,chenodeoxycholic acid,"InChI=1S/C24H40O4/c1-14(4-7-21(27)28)17-5-6-18-22-19(9-11-24(17,18)3)23(2)10-8-16(25)12-15(23)13-20(22)26/h14-20,22,25-26H,4-13H2,1-3H3,(H,27,28)/t14-,15+,16-,17-,18+,19+,20-,22+,23+,24-/m1/s1",RUDATBOHQWOJDD-BSWAIDMHSA-N,C[C@H](CCC(O)=O)[C@H]1CC[C@H]2[C@@H]3[C@H](O)C[C@@H]4C[C@H](O)CC[C@]4(C)[C@H]3CC[C@]12C,-3.64,0.0,1,G1
D-1239,hyocholic acid,"InChI=1S/C24H40O5/c1-13(4-7-19(26)27)15-5-6-16-20-17(9-11-23(15,16)2)24(3)10-8-14(25)12-18(24)21(28)22(20)29/h13-18,20-22,25,28-29H,4-12H2,1-3H3,(H,26,27)/t13-,14-,15-,16+,17+,18+,20+,21-,22+,23-,24-/m1/s1",DKPMWHFRUGMUKF-KWXDGCAGSA-N,C[C@H](CCC(O)=O)[C@H]1CC[C@H]2[C@@H]3[C@H](O)[C@H](O)[C@@H]4C[C@H](O)CC[C@]4(C)[C@H]3CC[C@]12C,-4.346,0.0,1,G1
D-1242,"2,3,7,8-tetrachlorodibenzo-p-dioxin",InChI=1S/C12H4Cl4O2/c13-5-1-9-10(2-6(5)14)18-12-4-8(16)7(15)3-11(12)17-9/h1-4H,HGUFODBRKLSHSI-UHFFFAOYSA-N,Clc1cc2Oc3cc(Cl)c(Cl)cc3Oc2cc1Cl,-9.207,0.5065,2,G2
D-1243,"1,2,3,4,6,7,8,9-octachlorodibenzo-p-dioxin",InChI=1S/C12Cl8O2/c13-1-2(14)6(18)10-9(5(1)17)21-11-7(19)3(15)4(16)8(20)12(11)22-10,FOIBFBMSLDGNHL-UHFFFAOYSA-N,Clc1c(Cl)c(Cl)c2Oc3c(Cl)c(Cl)c(Cl)c(Cl)c3Oc2c1Cl,-12.06,0.3649999999999993,2,G3
D-1252,"2,3,7,8-tetrachlorodibenzofuran",InChI=1S/C12H4Cl4O/c13-7-1-5-6-2-8(14)10(16)4-12(6)17-11(5)3-9(7)15/h1-4H,KSMVNVHUTQZITP-UHFFFAOYSA-N,Clc1cc2oc3cc(Cl)c(Cl)cc3c2cc1Cl,-8.646,0.10699999999999932,2,G3