ID,Name,InChI,InChIKey,SMILES,Solubility,SD,Occurrences,Group
I-15,bupivacaine,"InChI=1S/C18H28N2O/c1-4-5-12-20-13-7-6-11-16(20)18(21)19-17-14(2)9-8-10-15(17)3/h8-10,16H,4-7,11-13H2,1-3H3,(H,19,21)",LEBVLXFERQHONN-UHFFFAOYSA-N,CCCCN1CCCCC1C(=O)Nc1c(C)cccc1C,-3.22,0.5701,2,G2
I-16,carprofen,"InChI=1S/C15H12ClNO2/c1-8(15(18)19)9-2-4-11-12-7-10(16)3-5-13(12)17-14(11)6-9/h2-8,17H,1H3,(H,18,19)",PUXBGTOOZJQSKH-UHFFFAOYSA-N,CC(C(O)=O)c1ccc2c(c1)[nH]c1ccc(Cl)cc21,-4.7,0.0,1,G1
I-17,carvedilol,"InChI=1S/C24H26N2O4/c1-28-21-10-4-5-11-22(21)29-14-13-25-15-17(27)16-30-23-12-6-9-20-24(23)18-7-2-3-8-19(18)26-20/h2-12,17,25-27H,13-16H2,1H3",OGHNVEJMJSYVRP-UHFFFAOYSA-N,COc1ccccc1OCCNCC(O)COc1cccc2[nH]c3ccccc3c12,-4.26,0.0,1,G1
I-18,cephalothin,"InChI=1S/C16H16N2O6S2/c1-8(19)24-6-9-7-26-15-12(14(21)18(15)13(9)16(22)23)17-11(20)5-10-3-2-4-25-10/h2-4,12,15H,5-7H2,1H3,(H,17,20)(H,22,23)/t12-,15-/m1/s1",XIURVHNZVLADCM-IUODEOHRSA-N,C1(=C(COC(C)=O)CS[C@@H]2[C@H](NC(=O)Cc3cccs3)C(N12)=O)C(O)=O,-2.94,0.0,1,G1
I-19,chlorpheniramine,"InChI=1S/C16H19ClN2/c1-19(2)12-10-15(16-5-3-4-11-18-16)13-6-8-14(17)9-7-13/h3-9,11,15H,10,12H2,1-2H3/t15-/m0/s1",SOYKEARSMXGVTM-HNNXBMFYSA-N,C([C@H](c1ccccn1)c1ccc(cc1)Cl)CN(C)C,-2.67,0.0,1,G1
I-20,chlorpromazine,"InChI=1S/C17H19ClN2S/c1-19(2)10-5-11-20-14-6-3-4-7-16(14)21-17-9-8-13(18)12-15(17)20/h3-4,6-9,12H,5,10-11H2,1-2H3",ZPEIMTDSQAKGNT-UHFFFAOYSA-N,c1c(Cl)ccc2Sc3ccccc3N(CCCN(C)C)c12,-5.07,0.036359317925395644,3,G5
I-21,chlorpropamide,"InChI=1S/C10H13ClN2O3S/c1-2-7-12-10(14)13-17(15,16)9-5-3-8(11)4-6-9/h3-6H,2,7H2,1H3,(H2,12,13,14)",RKWGIWYCVPQPMF-UHFFFAOYSA-N,Clc1ccc(S(=O)(NC(=O)NCCC)=O)cc1,-3.25,0.1100000000000001,2,G3
I-23,chlorprothixene_form_II,"InChI=1S/C18H18ClNS/c1-20(2)11-5-7-14-15-6-3-4-8-17(15)21-18-10-9-13(19)12-16(14)18/h3-4,6-10,12H,5,11H2,1-2H3/b14-7-",WSPOMRSOLSGNFJ-AUWJEWJLSA-N,CN(C)CC\C=C1\c2ccccc2Sc2ccc(cc12)Cl,-5.87,0.43999999999999995,2,G3
I-24,chlorzoxazone,"InChI=1S/C7H4ClNO2/c8-4-1-2-6-5(3-4)9-7(10)11-6/h1-3H,(H,9,10)",TZFWDZFKRBELIQ-UHFFFAOYSA-N,c1cc2c(cc1Cl)[nH]c(=O)o2,-2.66,0.08499999999999996,2,G3
I-26,ciprofloxacin,"InChI=1S/C17H18FN3O3/c18-13-7-11-14(8-15(13)20-5-3-19-4-6-20)21(10-1-2-10)9-12(16(11)22)17(23)24/h7-10,19H,1-6H2,(H,23,24)",MYSWGUAQZAJSOK-UHFFFAOYSA-N,O=C(c1cn(C2CC2)c2c(cc(F)c(N3CCNCC3)c2)c1=O)O,-3.6,1.2100286718366084,3,G4
I-27,danofloxacin,"InChI=1S/C19H20FN3O3/c1-21-7-12-4-11(21)8-22(12)17-6-16-13(5-15(17)20)18(24)14(19(25)26)9-23(16)10-2-3-10/h5-6,9-12H,2-4,7-8H2,1H3,(H,25,26)/t11-,12-/m0/s1",QMLVECGLEOSESV-RYUDHWBXSA-N,C[N@]1C[C@@H]2C[C@H]1CN2c1c(cc2c(n(cc(C(=O)O)c2=O)C2CC2)c1)F,-2.9,0.0,1,G1
I-28,deprenyl,"InChI=1S/C13H17N/c1-4-10-14(3)12(2)11-13-8-6-5-7-9-13/h1,5-9,12H,10-11H2,2-3H3/t12-/m1/s1",MEZLKOACVSPNER-GFCCVEGCSA-N,C[C@H](CC1=CC=CC=C1)N(C)CC#C,-2.51,0.0,1,G1
I-30,diazoxide,"InChI=1S/C8H7ClN2O2S/c1-5-10-7-3-2-6(9)4-8(7)14(12,13)11-5/h2-4H,1H3,(H,10,11)",GDLBFKVLRPITMI-UHFFFAOYSA-N,Clc1cc2S(=O)(=O)N=C(Nc2cc1)C,-3.36,0.0,1,G1
I-33,diltiazem,"InChI=1S/C22H26N2O4S/c1-15(25)28-20-21(16-9-11-17(27-4)12-10-16)29-19-8-6-5-7-18(19)24(22(20)26)14-13-23(2)3/h5-12,20-21H,13-14H2,1-4H3/t20-,21+/m1/s1",HSUGRBWQSSZJOP-RTWAWAEBSA-N,O=C1[C@H](OC(C)=O)[C@H](c2ccc(OC)cc2)Sc2ccccc2N1CCN(C)C,-3.16,0.1049500000000001,2,G3
I-34,diphenydramine,"InChI=1S/C17H21NO/c1-18(2)13-14-19-17(15-9-5-3-6-10-15)16-11-7-4-8-12-16/h3-12,17H,13-14H2,1-2H3",ZZVUWRFHKOJYTH-UHFFFAOYSA-N,CN(C)CCOC(c1ccccc1)c1ccccc1,-2.95,0.0,1,G1
I-36,enrofloxacin,"InChI=1S/C19H22FN3O3/c1-2-21-5-7-22(8-6-21)17-10-16-13(9-15(17)20)18(24)14(19(25)26)11-23(16)12-3-4-12/h9-12H,2-8H2,1H3,(H,25,26)",SPFYMRJSYKOXGV-UHFFFAOYSA-N,CCN1CCN(CC1)c1c(cc2c(n(cc(C(=O)O)c2=O)C2CC2)c1)F,-3.18,0.0,1,G1
I-37,famotidine,"InChI=1S/C8H15N7O2S3/c9-6(15-20(12,16)17)1-2-18-3-5-4-19-8(13-5)14-7(10)11/h4H,1-3H2,(H2,9,15)(H2,12,16,17)(H4,10,11,13,14)",XUFQPHANEAPEMJ-UHFFFAOYSA-N,N\C(CCSCc1csc(\N=C(\N)N)n1)=N\S(=O)(N)=O,-2.65,0.16500000000000004,2,G3
I-38,fenoprofen,"InChI=1S/C15H14O3/c1-11(15(16)17)12-6-5-9-14(10-12)18-13-7-3-2-4-8-13/h2-11H,1H3,(H,16,17)",RDJGLLICXDHJDY-UHFFFAOYSA-N,CC(C(O)=O)c1cccc(Oc2ccccc2)c1,-3.7,0.9100000000000001,2,G2
I-42,glipizide,"InChI=1S/C21H27N5O4S/c1-15-13-24-19(14-23-15)20(27)22-12-11-16-7-9-18(10-8-16)31(29,30)26-21(28)25-17-5-3-2-4-6-17/h7-10,13-14,17H,2-6,11-12H2,1H3,(H,22,27)(H2,25,26,28)",ZJJXGWJIGJFDTL-UHFFFAOYSA-N,O=C(NC1CCCCC1)NS(=O)(c1ccc(CCNC(c2cnc(cn2)C)=O)cc1)=O,-5.49,0.0,1,G1
I-43,guanine,"InChI=1S/C5H5N5O/c6-5-9-3-2(4(11)10-5)7-1-8-3/h1H,(H4,6,7,8,9,10,11)",UYTPUPDQBNUYGX-UHFFFAOYSA-N,[nH]1cnc2nc(N)[nH]c(=O)c12,-4.43,0.5025178824899889,3,G4
I-45,hydroflumethiazide,"InChI=1S/C8H8F3N3O4S2/c9-8(10,11)4-1-5-7(2-6(4)19(12,15)16)20(17,18)14-3-13-5/h1-2,13-14H,3H2,(H2,12,15,16)",DMDGGSIALPNSEE-UHFFFAOYSA-N,S1(=O)(=O)NCNc2c1cc(S(=O)(N)=O)c(c2)C(F)(F)F,-2.97,0.03499999999999992,2,G3
I-47,ibuprofen,"InChI=1S/C13H18O2/c1-9(2)8-11-4-6-12(7-5-11)10(3)13(14)15/h4-7,9-10H,8H2,1-3H3,(H,14,15)",HEFNNWSXXWATRW-UHFFFAOYSA-N,CC(C)Cc1ccc(cc1)C(C)C(O)=O,-3.59,0.22553639765383043,3,G5
I-48,lomefloxacin,"InChI=1S/C17H19F2N3O3/c1-3-21-8-11(17(24)25)16(23)10-6-12(18)15(13(19)14(10)21)22-5-4-20-9(2)7-22/h6,8-9,20H,3-5,7H2,1-2H3,(H,24,25)",ZEKZLJVOYLTDKK-UHFFFAOYSA-N,CCn1cc(C(O)=O)c(=O)c2cc(F)c(N3CCNC(C)C3)c(F)c12,-2.33,0.0,1,G1
I-49,maprotiline,"InChI=1S/C20H23N/c1-21-14-6-12-20-13-11-15(16-7-2-4-9-18(16)20)17-8-3-5-10-19(17)20/h2-5,7-10,15,21H,6,11-14H2,1H3",QSLMDECMDJKHMQ-UHFFFAOYSA-N,N(C)CCCC12c3c(C(c4ccccc14)CC2)cccc3,-4.69,0.0,1,G1
I-52,metronidazole,"InChI=1S/C6H9N3O3/c1-5-7-4-6(9(11)12)8(5)2-3-10/h4,10H,2-3H2,1H3",VAOCPAMSLUNLGC-UHFFFAOYSA-N,OCCn1c(ncc1N(=O)=O)C,-1.22,0.0368178700572909,3,G5
I-53,miconazole,"InChI=1S/C18H14Cl4N2O/c19-13-2-1-12(16(21)7-13)10-25-18(9-24-6-5-23-11-24)15-4-3-14(20)8-17(15)22/h1-8,11,18H,9-10H2",BYBLEWFAAKGYCD-UHFFFAOYSA-N,Clc1ccc(COC(Cn2ccnc2)c2ccc(Cl)cc2Cl)c(Cl)c1,-5.07,0.0,1,G1
I-55,naloxone,"InChI=1S/C19H21NO4/c1-2-8-20-9-7-18-15-11-3-4-12(21)16(15)24-17(18)13(22)5-6-19(18,23)14(20)10-11/h2-4,14,17,21,23H,1,5-10H2/t14-,17+,18+,19-/m1/s1",UZHSEJADLWPNLE-GRGSLBFTSA-N,O[C@]1([C@H](N(CC=C)CC2)C3)[C@@]42C5=C3C=CC(O)=C5O[C@H]4C(CC1)=O,-2.9,0.0,1,G1
I-56,naproxen,"InChI=1S/C14H14O3/c1-9(14(15)16)10-3-4-12-8-13(17-2)6-5-11(12)7-10/h3-9H,1-2H3,(H,15,16)/t9-/m0/s1",CMWTZPSULFXXJA-VIFPVBQESA-N,O=C(O)[C@@H](C)c1ccc2cc(ccc2c1)OC,-4.5,0.0,1,G1
I-59,norfloxacin,"InChI=1S/C16H18FN3O3/c1-2-19-9-11(16(22)23)15(21)10-7-12(17)14(8-13(10)19)20-5-3-18-4-6-20/h7-9,18H,2-6H2,1H3,(H,22,23)",OGJPXUAPXNRGGI-UHFFFAOYSA-N,CCn1cc(c(=O)c2cc(c(cc12)N1CCNCC1)F)C(=O)O,-2.76,0.0,1,G1
I-60,nortriptiline,"InChI=1S/C19H21N/c1-20-14-6-11-19-17-9-4-2-7-15(17)12-13-16-8-3-5-10-18(16)19/h2-5,7-11,20H,6,12-14H2,1H3",PHVGLTMQBUFIQQ-UHFFFAOYSA-N,N(CC\C=C1\c2c(CCc3c1cccc3)cccc2)C,-4.02,0.0,1,G1
I-61,ofloxacin,"InChI=1S/C18H20FN3O4/c1-10-9-26-17-14-11(16(23)12(18(24)25)8-22(10)14)7-13(19)15(17)21-5-3-20(2)4-6-21/h7-8,10H,3-6,9H2,1-2H3,(H,24,25)",GSDSWSVVBLHKDQ-UHFFFAOYSA-N,CC1COc2c(N3CCN(C)CC3)c(F)cc3c2n1cc(C(O)=O)c3=O,-1.27,0.0,1,G1
I-62,oxytetracycline,"InChI=1S/C22H24N2O9/c1-21(32)7-5-4-6-8(25)9(7)15(26)10-12(21)17(28)13-14(24(2)3)16(27)11(20(23)31)19(30)22(13,33)18(10)29/h4-6,12-14,17,25-28,32-33H,1-3H3,(H2,23,31)/t12-,13-,14+,17+,21-,22+/m1/s1",JLGOGFIHBRJQHY-PXOLEDIWSA-N,OC1=C(C(O)=C(C([C@@](C(C(C(N)=O)=C(O)[C@H]2N(C)C)=O)(O)[C@@]2([H])[C@H]3O)=O)[C@@]3([H])[C@@]4(O)C)C4=CC=C1,-3.09,0.0,1,G1
I-63,papaverine,"InChI=1S/C20H21NO4/c1-22-17-6-5-13(10-18(17)23-2)9-16-15-12-20(25-4)19(24-3)11-14(15)7-8-21-16/h5-8,10-12H,9H2,1-4H3",XQYZDYMELSJDRZ-UHFFFAOYSA-N,c1(nccc2cc(c(OC)cc12)OC)Cc1cc(c(cc1)OC)OC,-3.87,0.0,1,G1
I-65,phenazopyridine,"InChI=1S/C11H11N5/c12-10-7-6-9(11(13)14-10)16-15-8-4-2-1-3-5-8/h1-7H,(H4,12,13,14)/b16-15+",QPFYXYFORQJZEC-FOCLMDBBSA-N,c1ccc(cc1)\N=N\c1c(nc(cc1)N)N,-4.19,0.0,1,G1
I-68,phthalic_acid_form_I,"InChI=1S/C8H6O4/c9-7(10)5-3-1-2-4-6(5)8(11)12/h1-4H,(H,9,10)(H,11,12)",XNGIFLGASWRNHJ-UHFFFAOYSA-N,C(c1c(C(=O)O)cccc1)(=O)O,-1.49,0.34059359947010154,5,G5
I-72,procaine,"InChI=1S/C13H20N2O2/c1-3-15(4-2)9-10-17-13(16)11-5-7-12(14)8-6-11/h5-8H,3-4,9-10,14H2,1-2H3",MFDFERRIHVXMIY-UHFFFAOYSA-N,Nc1ccc(C(OCCN(CC)CC)=O)cc1,-1.72,0.27776888874666217,3,G5
I-73,propranolol,"InChI=1S/C16H21NO2/c1-12(2)17-10-14(18)11-19-16-9-5-7-13-6-3-4-8-15(13)16/h3-9,12,14,17-18H,10-11H2,1-2H3",AQHHHDLHHXJYJD-UHFFFAOYSA-N,CC(C)NCC(O)COc1cccc2ccccc12,-3.49,0.06499999999999995,2,G3
I-74,quinine,"InChI=1S/C20H24N2O2/c1-3-13-12-22-9-7-14(13)10-19(22)20(23)16-6-8-21-18-5-4-15(24-2)11-17(16)18/h3-6,8,11,13-14,19-20,23H,1,7,9-10,12H2,2H3/t13?,14?,19-,20+/m0/s1",LOUPRKONTZGTKE-LFDRZELQSA-N,[H]C1(CN2CCC1C[C@@]2([H])[C@H](O)C1=CC=NC2=C1C=C(OC)C=C2)C=C,-2.79,0.0,1,G1
I-75,ranitidine,"InChI=1S/C13H22N4O3S/c1-14-13(9-17(18)19)15-6-7-21-10-12-5-4-11(20-12)8-16(2)3/h4-5,9,14-15H,6-8,10H2,1-3H3/b13-9+",VMXUWOKSQNHOCA-UKTHLTGXSA-N,S(Cc1oc(CN(C)C)cc1)CCN\C(NC)=C\N(=O)=O,-2.5,0.0,1,G1
I-76,sarafloxacin,"InChI=1S/C20H17F2N3O3/c21-12-1-3-13(4-2-12)25-11-15(20(27)28)19(26)14-9-16(22)18(10-17(14)25)24-7-5-23-6-8-24/h1-4,9-11,23H,5-8H2,(H,27,28)",XBHBWNFJWIASRO-UHFFFAOYSA-N,C1CN(CCN1)c1c(cc2c(n(cc(C(=O)O)c2=O)c2ccc(cc2)F)c1)F,-3.13,0.0050000000000001155,2,G3
I-77,sparfloxacin,"InChI=1S/C19H22F2N4O3/c1-8-5-24(6-9(2)23-8)17-13(20)15(22)12-16(14(17)21)25(10-3-4-10)7-11(18(12)26)19(27)28/h7-10,23H,3-6,22H2,1-2H3,(H,27,28)/t8-,9+",DZZWHBIBMUVIIW-DTORHVGOSA-N,C[C@H]1CN(C[C@@H](C)N1)C1=C(F)C2=C(C(=O)C(=CN2C2CC2)C(O)=O)C(N)=C1F,-3.37,0.0,1,G1
I-79,sulfamethazine,"InChI=1S/C12H14N4O2S/c1-8-7-9(2)15-12(14-8)16-19(17,18)11-5-3-10(13)4-6-11/h3-7H,13H2,1-2H3,(H,14,15,16)",ASWVTGNCAZCNNR-UHFFFAOYSA-N,S(=O)(=O)(Nc1nc(C)cc(n1)C)c1ccc(N)cc1,-2.73,0.22999999999999998,2,G3
I-80,sulfasalazine,"InChI=1S/C18H14N4O5S/c23-16-9-6-13(11-15(16)18(24)25)21-20-12-4-7-14(8-5-12)28(26,27)22-17-3-1-2-10-19-17/h1-11,23H,(H,19,22)(H,24,25)/b21-20+",NCEXYHBECQHGNR-QZQOTICOSA-N,C(=O)(O)c1cc(ccc1O)\N=N\c1ccc(cc1)S(=O)(Nc1ccccn1)=O,-6.14,0.0,1,G1
I-83,sulindac_form_II,"InChI=1S/C20H17FO3S/c1-12-17(9-13-3-6-15(7-4-13)25(2)24)16-8-5-14(21)10-19(16)18(12)11-20(22)23/h3-10H,11H2,1-2H3,(H,22,23)/b17-9+",MLKXDPUZXIRXEP-RQZCQDPDSA-N,CC1=C(CC(O)=O)c2cc(F)ccc2C\1=C\c1ccc(cc1)S(C)=O,-4.5,0.4099999999999999,2,G3
I-84,tetracaine,"InChI=1S/C15H24N2O2/c1-4-5-10-16-14-8-6-13(7-9-14)15(18)19-12-11-17(2)3/h6-9,16H,4-5,10-12H2,1-3H3",GKCBAIGFKIBETG-UHFFFAOYSA-N,C(c1ccc(cc1)NCCCC)(=O)OCCN(C)C,-3.01,0.0,1,G1
I-85,tetracycline,"InChI=1S/C22H24N2O8/c1-21(31)8-5-4-6-11(25)12(8)16(26)13-9(21)7-10-15(24(2)3)17(27)14(20(23)30)19(29)22(10,32)18(13)28/h4-6,9-10,15,25,27-28,31-32H,7H2,1-3H3,(H2,23,30)/t9-,10-,15-,21+,22-/m0/s1",OFVLGDICTFRJMM-WESIUVDSSA-N,OC1=C(C(C2=C(O)[C@@](C(C(C(N)=O)=C(O)[C@H]3N(C)C)=O)(O)[C@@]3([H])C[C@]2([H])[C@@]4(O)C)=O)C4=CC=C1,-2.93,0.0,1,G1
I-87,tolmetin,"InChI=1S/C15H15NO3/c1-10-3-5-11(6-4-10)15(19)13-8-7-12(16(13)2)9-14(17)18/h3-8H,9H2,1-2H3,(H,17,18)",UPSPUYADGBWSHF-UHFFFAOYSA-N,Cc1ccc(cc1)C(=O)c1ccc(CC(=O)O)n1C,-4.09,0.0,1,G1
I-88,trichloromethiazide_form_I,"InChI=1S/C8H8Cl3N3O4S2/c9-3-1-4-6(2-5(3)19(12,15)16)20(17,18)14-8(13-4)7(10)11/h1-2,7-8,13-14H,(H2,12,15,16)",LMJSLTNSBFUCMU-UHFFFAOYSA-N,NS(=O)(=O)c1cc2c(NC(NS2(=O)=O)C(Cl)Cl)cc1Cl,-3.18,0.3488074922742724,3,G5
I-91,trimipramine,"InChI=1S/C20H26N2/c1-16(14-21(2)3)15-22-19-10-6-4-8-17(19)12-13-18-9-5-7-11-20(18)22/h4-11,16H,12-15H2,1-3H3",ZSCDBOWYZJWBIY-UHFFFAOYSA-N,CC(CN(C)C)CN1c2ccccc2CCc2ccccc12,-4.79,0.0,1,G1
I-92,tryptamine,"InChI=1S/C10H12N2/c11-6-5-8-7-12-10-4-2-1-3-9(8)10/h1-4,7,12H,5-6,11H2",APJYDQYYACXCRM-UHFFFAOYSA-N,NCCc1c[nH]c2ccccc12,-3.3,0.0,1,G1
I-93,verapamil,"InChI=1S/C27H38N2O4/c1-20(2)27(19-28,22-10-12-24(31-5)26(18-22)33-7)14-8-15-29(3)16-13-21-9-11-23(30-4)25(17-21)32-6/h9-12,17-18,20H,8,13-16H2,1-7H3",SGTNSNPWRIOYBX-UHFFFAOYSA-N,COc1ccc(CCN(C)CCCC(C#N)(C(C)C)c2ccc(OC)c(OC)c2)cc1OC,-3.98,0.0,1,G1
C-2,methyl  isothiocyanate,InChI=1S/C2H3NS/c1-3-2-4/h1H3,LGDSHSYDSCRFAB-UHFFFAOYSA-N,CN=C=S,-1.0,0.008500000000000008,2,G3
C-3,"1,3,5-trioxane",InChI=1S/C3H6O3/c1-4-2-6-3-5-1/h1-3H2,BGJSXRVXTHVRSN-UHFFFAOYSA-N,C1OCOCO1,0.29,0.0,1,G1
C-5,bis(2-hydroxypropyl)amine,"InChI=1S/C6H15NO2/c1-5(8)3-7-4-6(2)9/h5-9H,3-4H2,1-2H3",LVTYICIALWPMFW-UHFFFAOYSA-N,CC(O)CNCC(C)O,0.81,0.0,1,G1
C-8,dimethyl  oxalate,InChI=1S/C4H6O4/c1-7-3(5)4(6)8-2/h1-2H3,LOMVENUNSWAXEN-UHFFFAOYSA-N,COC(=O)C(=O)OC,-0.29,0.0,1,G1
C-9,glycine,"InChI=1S/C2H5NO2/c3-1-2(4)5/h1,3H2,(H,4,5)",DHMQDGOQFOQNFH-UHFFFAOYSA-N,NCC(O)=O,0.92,0.19965,2,G3
C-10,beta-alanine,"InChI=1S/C3H7NO2/c4-2-1-3(5)6/h1-2,4H2,(H,5,6)",UCMIRNVEIXFBKS-UHFFFAOYSA-N,NCCC(O)=O,0.79,0.0,1,G1
C-18,alpha-terpineol,"InChI=1S/C10H18O/c1-8-4-6-9(7-5-8)10(2,3)11/h4,9,11H,5-7H2,1-3H3",WUOACPNHFRMFPN-UHFFFAOYSA-N,CC1=CCC(CC1)C(C)(C)O,-1.91,0.009199999999999986,2,G3
C-21,(-)-carveol;  5-isopropenyl-2-methyl-2-cyclohexen-1-ol,"InChI=1S/C10H16O/c1-7(2)9-5-4-8(3)10(11)6-9/h4,9-11H,1,5-6H2,2-3H3",BAVONGHXFVOKBV-UHFFFAOYSA-N,CC(=C)C1CC=C(C)C(O)C1,-1.72,0.0,1,G1
C-25,6-aminohexanoic acid;  6-aminocaproic  acid,"InChI=1S/C6H13NO2/c7-5-3-1-2-4-6(8)9/h1-5,7H2,(H,8,9)",SLXKOJJOQWFEFD-UHFFFAOYSA-N,NCCCCCC(O)=O,0.59,0.0,1,G1
C-33,l-serine,"InChI=1S/C3H7NO3/c4-2(1-5)3(6)7/h2,5H,1,4H2,(H,6,7)",MTCFGRXMJLQNBG-UHFFFAOYSA-N,NC(CO)C(O)=O,-0.02,0.42230974710513136,4,G5
C-39,l-proline,"InChI=1S/C5H9NO2/c7-5(8)4-2-1-3-6-4/h4,6H,1-3H2,(H,7,8)",ONIBWKKTOPOVIA-UHFFFAOYSA-N,OC(=O)C1CCCN1,0.15,0.0,1,G1
C-43,hexachloroethane,"InChI=1S/C2Cl6/c3-1(4,5)2(6,7)8",VHHHONWQHHHLTI-UHFFFAOYSA-N,ClC(Cl)(Cl)C(Cl)(Cl)Cl,-3.94,0.34031488686541816,3,G5
C-44,cysteine,"InChI=1S/C3H7NO2S/c4-2(1-7)3(5)6/h2,7H,1,4H2,(H,5,6)",XUJNEKJLAYXESH-UHFFFAOYSA-N,NC(CS)C(O)=O,0.36,0.0,1,G1
C-47,"fumaric  acid;  (e)-2-butenedioic acid;  (e)-1,2-ethenedicarboxylic acid","InChI=1S/C4H4O4/c5-3(6)1-2-4(7)8/h1-2H,(H,5,6)(H,7,8)/b2-1+",VZCYOOQTPOCHFL-OWOJBTEDSA-N,OC(=O)/C=C/C(O)=O,-1.22,0.8999999999999999,2,G2
C-48,succinic  acid;  butanedioic acid,"InChI=1S/C4H6O4/c5-3(6)1-2-4(7)8/h1-2H2,(H,5,6)(H,7,8)",KDYFGRWQOYBRFD-UHFFFAOYSA-N,OC(=O)CCC(O)=O,-0.17,0.019798989873223337,3,G5
C-50,4-hydroxy-l-proline,"InChI=1S/C5H9NO3/c7-3-1-4(5(8)9)6-2-3/h3-4,6-7H,1-2H2,(H,8,9)",PMMYEEVYMWASQN-UHFFFAOYSA-N,OC1CNC(C1)C(O)=O,0.44,0.0,1,G1
C-53,dl-methionine,"InChI=1S/C5H11NO2S/c1-9-3-2-4(6)5(7)8/h4H,2-3,6H2,1H3,(H,7,8)",FFEARJCKVFRZRR-UHFFFAOYSA-N,CSCCC(N)C(O)=O,-0.66,0.12000000000000002,2,G3
C-56,"amitrole; 3-amino-1,2,4-triazole","InChI=1S/C2H4N4/c3-2-4-1-5-6-2/h1H,(H3,3,4,5,6)",KLSJWNVTNUYHDU-UHFFFAOYSA-N,NC1=N[NH]C=N1,0.52,0.0,1,G1
C-59,dl-malic acid;  dl-2-hydroxybutanedioic acid;  hydroxysuccinic acid,"InChI=1S/C4H6O5/c5-2(4(8)9)1-3(6)7/h2,5H,1H2,(H,6,7)(H,8,9)",BJEPYKJPYRNKOW-UHFFFAOYSA-N,OC(CC(O)=O)C(O)=O,0.64,0.1796937580069677,3,G5
C-62,diallate,"InChI=1S/C10H17Cl2NOS/c1-7(2)13(8(3)4)10(14)15-6-9(12)5-11/h5,7-8H,6H2,1-4H3/b9-5-",SPANOECCGNXGNR-UITAMQMPSA-N,CC(C)N(C(C)C)C(=O)SC\C(Cl)=C\Cl,-4.29,0.0,1,G1
C-63,phenol,"InChI=1S/C6H6O/c7-6-4-2-1-3-5-6/h1-5,7H",ISWSIDIOOBJBQZ-UHFFFAOYSA-N,OC1=CC=CC=C1,-0.04,0.023551362310207588,3,G5
C-64,methyl  hexadecanoate;  methyl  palmitate,"InChI=1S/C17H34O2/c1-3-4-5-6-7-8-9-10-11-12-13-14-15-16-17(18)19-2/h3-16H2,1-2H3",FLIACVVOZYBSBS-UHFFFAOYSA-N,CCCCCCCCCCCCCCCC(=O)OC,-7.83,0.0,1,G1
C-65,l-glutamine,"InChI=1S/C5H10N2O3/c6-3(5(9)10)1-2-4(7)8/h3H,1-2,6H2,(H2,7,8)(H,9,10)",ZDXPYRJPNDTMRX-UHFFFAOYSA-N,NC(CCC(N)=O)C(O)=O,-0.54,0.0050000000000000044,2,G3
C-69,"methyprylon;  3,3-diethyl-5-methyl-2,4-piperidinedione","InChI=1S/C10H17NO2/c1-4-10(5-2)8(12)7(3)6-11-9(10)13/h7H,4-6H2,1-3H3,(H,11,13)",SIDLZWOQUZRBRU-UHFFFAOYSA-N,CCC1(CC)C(=O)NCC(C)C1=O,-0.38,0.0,1,G1
C-71,"1,3,5-triaza-1,3,5-trinitrocyclohexane",InChI=1S/C3H6N6O6/c10-7(11)4-1-5(8(12)13)3-6(2-4)9(14)15/h1-3H2,XTFIVUDBNACUBN-UHFFFAOYSA-N,[O-][N+](=O)N1CN(CN(C1)[N+]([O-])=O)[N+]([O-])=O,-3.57,0.0,1,G1
C-73,methyl stearate; methyl octadecanoate; octadecanoic acid methyl ester,"InChI=1S/C19H38O2/c1-3-4-5-6-7-8-9-10-11-12-13-14-15-16-17-18-19(20)21-2/h3-18H2,1-2H3",HPEUJPJOZXNMSJ-UHFFFAOYSA-N,CCCCCCCCCCCCCCCCCC(=O)OC,-9.0,0.0,1,G1
C-74,methomyl,"InChI=1S/C5H10N2O2S/c1-4(10-3)7-9-5(8)6-2/h1-3H3,(H,6,8)/b7-4-",UHXUZOCRWCRNSJ-DAXSKMNVSA-N,CNC(=O)O\N=C(\C)SC,-1.21,0.0,1,G1
C-79,"5,5-dimethylbarbituric  acid","InChI=1S/C6H8N2O3/c1-6(2)3(9)7-5(11)8-4(6)10/h1-2H3,(H2,7,8,9,10,11)",LAOZSCRCYVBSJA-UHFFFAOYSA-N,CC1(C)C(=O)NC(=O)NC1=O,-1.74,0.0,1,G1
C-86,"spiro-5,5-dimethylenebarbituric  acid","InChI=1S/C6H6N2O3/c9-3-6(1-2-6)4(10)8-5(11)7-3/h1-2H2,(H2,7,8,9,10,11)",PQVZDTWRGIHYCU-UHFFFAOYSA-N,O=C1NC(=O)C2(CC2)C(=O)N1,-1.89,0.0,1,G1
C-88,1-cyclohexyl-3-decylurea,"InChI=1S/C17H34N2O/c1-2-3-4-5-6-7-8-12-15-18-17(20)19-16-13-10-9-11-14-16/h16H,2-15H2,1H3,(H2,18,19,20)",LPXYBLIRYGCMPQ-UHFFFAOYSA-N,CCCCCCCCCCNC(=O)NC1CCCCC1,-2.81,0.0,1,G1
C-89,"resorcinol;  1,3-benzenediol;  1,3-dihydroxybenzene","InChI=1S/C6H6O2/c7-5-2-1-3-6(8)4-5/h1-4,7-8H",GHMLBKRAJCXXBS-UHFFFAOYSA-N,OC1=CC(=CC=C1)O,0.78,0.015000000000000013,2,G3
C-91,4-ethylphenol,"InChI=1S/C8H10O/c1-2-7-3-5-8(9)6-4-7/h3-6,9H,2H2,1H3",HXDOZKJGKXYMEW-UHFFFAOYSA-N,CCC1=CC=C(O)C=C1,-1.4,0.03750000000000009,2,G3
C-93,"meprobamate;  2,2-di(carbamoyloxymethyl)pentane","InChI=1S/C9H18N2O4/c1-3-4-9(2,5-14-7(10)12)6-15-8(11)13/h3-6H2,1-2H3,(H2,10,12)(H2,11,13)",NPPQSCRMBWNHMW-UHFFFAOYSA-N,CCCC(C)(COC(N)=O)COC(N)=O,-1.81,0.06847546194724718,3,G5
C-94,5-ethyl-5-methylbarbituric  acid,"InChI=1S/C7H10N2O3/c1-3-7(2)4(10)8-6(12)9-5(7)11/h3H2,1-2H3,(H2,8,9,10,11,12)",RCFRTWDBBMGLGK-UHFFFAOYSA-N,CCC1(C)C(=O)NC(=O)NC1=O,-1.23,0.0,1,G1
C-104,"spiro-5,5-trimethylenebarbituric acid;  6,8-diazaspiro[3.5]nonane-5,7,9-trione","InChI=1S/C7H8N2O3/c10-4-7(2-1-3-7)5(11)9-6(12)8-4/h1-3H2,(H2,8,9,10,11,12)",VQDXQNNYGSEHPU-UHFFFAOYSA-N,O=C1NC(=O)C2(CCC2)C(=O)N1,-1.66,0.0,1,G1
C-105,"1,2,4,5-tetramethylbenzene;  durene","InChI=1S/C10H14/c1-7-5-9(3)10(4)6-8(7)2/h5-6H,1-4H3",SQNZJJAZBFDUTD-UHFFFAOYSA-N,CC1=CC(=C(C)C=C1C)C,-3.84,0.3730000000000002,2,G3
C-109,"5,5-diethylbarbituric  acid;  veronal;  barbital;  barbitone","InChI=1S/C8H12N2O3/c1-3-8(4-2)5(11)9-7(13)10-6(8)12/h3-4H2,1-2H3,(H2,9,10,11,12,13)",FTOAOBMCPZCFFF-UHFFFAOYSA-N,CCC1(CC)C(=O)NC(=O)NC1=O,-1.42,0.4692073694599815,3,G5
C-111,5-allyl-5-methylbarbituric  acid;  5-allyl-5-methylbarbiturate,"InChI=1S/C8H10N2O3/c1-3-4-8(2)5(11)9-7(13)10-6(8)12/h3H,1,4H2,2H3,(H2,9,10,11,12,13)",WMSQREUDUHHDDC-UHFFFAOYSA-N,CC1(CC=C)C(=O)NC(=O)NC1=O,-1.16,0.0,1,G1
C-112,3-hydroxybenzaldehyde,"InChI=1S/C7H6O2/c8-5-6-2-1-3-7(9)4-6/h1-5,9H",IAVREABSGIHHMO-UHFFFAOYSA-N,OC1=CC=CC(=C1)C=O,-1.23,0.2915,2,G3
C-117,"2,3,5-trimethylphenol","InChI=1S/C9H12O/c1-6-4-7(2)8(3)9(10)5-6/h4-5,10H,1-3H3",OGRAOKJKVGDSFR-UHFFFAOYSA-N,CC1=CC(=C(C)C(=C1)C)O,-2.25,0.0,1,G1
C-119,4-chloro-2-methylphenol;  4-chloro-2-cresol,"InChI=1S/C7H7ClO/c1-5-4-6(8)2-3-7(5)9/h2-4,9H,1H3",RHPUJHQBPORFGV-UHFFFAOYSA-N,CC1=C(O)C=CC(=C1)Cl,-1.55,0.0,1,G1
C-122,"phloroglucinol;  1,3,5-benzenetriol;  1,3,5-trihydroxybenzene","InChI=1S/C6H6O3/c7-4-1-5(8)3-6(9)2-4/h1-3,7-9H",QCDYQQDYXPDABM-UHFFFAOYSA-N,OC1=CC(=CC(=C1)O)O,-1.05,0.012499999999999956,2,G3
C-124,5-ethyl-5-propylbarbituric  acid,"InChI=1S/C9H14N2O3/c1-3-5-9(4-2)6(12)10-8(14)11-7(9)13/h3-5H2,1-2H3,(H2,10,11,12,13,14)",XIBUBTQSOGWALU-UHFFFAOYSA-N,CCCC1(CC)C(=O)NC(=O)NC1=O,-1.49,0.0,1,G1
C-126,4-sec-butylphenol,"InChI=1S/C10H14O/c1-3-8(2)9-4-6-10(11)7-5-9/h4-8,11H,3H2,1-2H3",ZUTYZAFDFLLILI-UHFFFAOYSA-N,CCC(C)C1=CC=C(O)C=C1,-2.19,0.0,1,G1
C-128,ethallobarbital;  5-allyl-5-ethylbarbituric  acid,"InChI=1S/C9H12N2O3/c1-3-5-9(4-2)6(12)10-8(14)11-7(9)13/h3H,1,4-5H2,2H3,(H2,10,11,12,13,14)",QPADNTZLUBYNEN-UHFFFAOYSA-N,CCC1(CC=C)C(=O)NC(=O)NC1=O,-1.61,0.039249999999999896,2,G3
C-129,pentamethylbenzene,"InChI=1S/C11H16/c1-7-6-8(2)10(4)11(5)9(7)3/h6H,1-5H3",BEZDDPMMPIDMGJ-UHFFFAOYSA-N,CC1=C(C)C(=C(C)C(=C1)C)C,-3.98,0.010000000000000009,2,G3
C-132,"metharbital;  5,5-diethyl-1-methylbarbituric acid","InChI=1S/C9H14N2O3/c1-4-9(5-2)6(12)10-8(14)11(3)7(9)13/h4-5H2,1-3H3,(H,10,12,14)",FWJKNZONDWOGMI-UHFFFAOYSA-N,CCC1(CC)C(=O)NC(=O)N(C)C1=O,-2.1,0.09416297927883688,3,G5