ID,Name,InChI,InChIKey,SMILES,Solubility,SD,Occurrences,Group
E-1163,2-aminophenol,"InChI=1S/C6H7NO/c7-5-3-1-2-4-6(5)8/h1-4,8H,7H2",CDAWCLOXVUBKRW-UHFFFAOYSA-N,c1cccc(N)c1O,-0.72,0.008500000000000008,2,G3
E-1166,N-methylurea,"InChI=1S/C2H6N2O/c1-4-2(3)5/h1H3,(H3,3,4,5)",XGEGHDBEHXKFPX-UHFFFAOYSA-N,O=C(NC)N,1.13,0.0,1,G1
E-1167,acrylamide,"InChI=1S/C3H5NO/c1-2-3(4)5/h2H,1H2,(H2,4,5)",HRPVXLWXLXDGHG-UHFFFAOYSA-N,O=C(N)C=C,0.96,0.012472191289246483,3,G5
E-1168,4-hydroxyacetanilide,"InChI=1S/C8H9NO2/c1-6(10)9-7-2-4-8(11)5-3-7/h2-5,11H,1H3,(H,9,10)",RZVAJINKPMORJF-UHFFFAOYSA-N,O=C(Nc(ccc(O)c1)c1)C,-1.03,0.07874007874011812,3,G5
E-1169,2-nitropropane,"InChI=1S/C3H7NO2/c1-3(2)4(5)6/h3H,1-2H3",FGLBSLMDCBOPQK-UHFFFAOYSA-N,CC(C)N(=O)=O,-0.62,0.04970000000000002,2,G3
E-1170,1-nitronaphthalene,InChI=1S/C10H7NO2/c12-11(13)10-7-3-5-8-4-1-2-6-9(8)10/h1-7H,RJKGJBPXVHTNJL-UHFFFAOYSA-N,O=N(=O)c(c(c(ccc1)cc2)c1)c2,-3.54,0.3700000000000001,2,G3
E-1172,2-nitroaniline,"InChI=1S/C6H6N2O2/c7-5-3-1-2-4-6(5)8(9)10/h1-4H,7H2",DPJCXCZTLWNFOH-UHFFFAOYSA-N,O=N(=O)c(c(N)ccc1)c1,-1.96,0.006500000000000061,2,G3
E-1173,3-chloroaniline,"InChI=1S/C6H6ClN/c7-5-2-1-3-6(8)4-5/h1-4H,8H2",PNPCRKVUWYDDST-UHFFFAOYSA-N,Clc(cccc1N)c1,-1.37,0.0,1,G1
E-1174,chlorothalonil,InChI=1S/C8Cl4N2/c9-5-3(1-13)6(10)8(12)7(11)4(5)2-14,CRQQGFGUEAVUIL-UHFFFAOYSA-N,N#Cc(c(c(c(c1C#N)Cl)Cl)Cl)c1Cl,-5.64,0.6299382685805189,3,G4
E-1175,fluridone,"InChI=1S/C19H14F3NO/c1-23-11-16(13-6-3-2-4-7-13)18(24)17(12-23)14-8-5-9-15(10-14)19(20,21)22/h2-12H,1H3",YWBVHLJPRPCRSD-UHFFFAOYSA-N,CN1C=C(c2ccccc2)C(=O)C(c3cc(C(F)(F)F)ccc3)=C1,-4.44,0.0,1,G1
E-1178,ethanethiol,"InChI=1S/C2H6S/c1-2-3/h3H,2H2,1H3",DNJIEGIFACGWOD-UHFFFAOYSA-N,CCS,-0.6,0.1804,2,G3
E-1182,fenthion,"InChI=1S/C10H15O3PS2/c1-8-7-9(5-6-10(8)16-4)13-14(15,11-2)12-3/h5-7H,1-4H3",PNVJTZOFSHSLTO-UHFFFAOYSA-N,COP(=S)(OC)Oc1ccc(SC)c(C)c1,-4.57,0.0,1,G1
E-1183,fenitrothion,"InChI=1S/C9H12NO5PS/c1-7-6-8(4-5-9(7)10(11)12)15-16(17,13-2)14-3/h4-6H,1-3H3",ZNOLGFHPUIJIMJ-UHFFFAOYSA-N,COP(=S)(OC)Oc1ccc(N(=O)=O)c(C)c1,-4.04,0.08850000000000002,2,G3
E-1184,iodofenphos,"InChI=1S/C8H8Cl2IO3PS/c1-12-15(16,13-2)14-8-4-5(9)7(11)3-6(8)10/h3-4H,1-2H3",LFVLUOAHQIVABZ-UHFFFAOYSA-N,COP(=S)(OC)Oc1cc(Cl)c(I)cc1Cl,-6.62,0.0,1,G1
E-1185,hyocholic_acid,"InChI=1S/C24H40O5/c1-13(4-7-19(26)27)15-5-6-16-20-17(9-11-23(15,16)2)24(3)10-8-14(25)12-18(24)21(28)22(20)29/h13-18,20-22,25,28-29H,4-12H2,1-3H3,(H,26,27)",DKPMWHFRUGMUKF-UHFFFAOYSA-N,C1C(O)CC2C(O)C(O)C3C4CCC(C(C)CCC(=O)O)C4(C)CCC3C2(C)C1,-4.35,0.0,1,G1
E-1187,4-chloroacetanilide,"InChI=1S/C8H8ClNO/c1-6(11)10-8-4-2-7(9)3-5-8/h2-5H,1H3,(H,10,11)",GGUOCFNAWIODMF-UHFFFAOYSA-N,O=C(Nc(ccc(c1)Cl)c1)C,-2.84,0.040000000000000036,2,G3
E-1188,4-nitroacetanilide,"InChI=1S/C8H8N2O3/c1-6(11)9-7-2-4-8(5-3-7)10(12)13/h2-5H,1H3,(H,9,11)",NQRLPDFELNCFHW-UHFFFAOYSA-N,O=C(Nc(ccc(c1)N(=O)=O)c1)C,-2.69,0.49577643707174657,3,G5
E-1189,hydrastine,"InChI=1S/C21H21NO6/c1-22-7-6-11-8-15-16(27-10-26-15)9-13(11)18(22)19-12-4-5-14(24-2)20(25-3)17(12)21(23)28-19/h4-5,8-9,18-19H,6-7,10H2,1-3H3",JZUTXVTYJDCMDU-UHFFFAOYSA-N,COc2ccc1C(OC(=O)c1c2OC)C4N(C)CCc5cc3OCOc3cc45,-4.11,0.0,1,G1
E-1190,nitrazepam,"InChI=1S/C15H11N3O3/c19-14-9-16-15(10-4-2-1-3-5-10)12-8-11(18(20)21)6-7-13(12)17-14/h1-8H,9H2,(H,17,19)",KJONHKAYOJNZEC-UHFFFAOYSA-N,O=C3CN=C(c1ccccc1)c2cc(ccc2N3)N(=O)=O,-3.8,0.0,1,G1
E-1191,dichlorphen,"InChI=1S/C13H10Cl2O2/c14-10-1-3-12(16)8(6-10)5-9-7-11(15)2-4-13(9)17/h1-4,6-7,16-17H,5H2",MDNWOSOZYLHTCG-UHFFFAOYSA-N,Oc(c(cc(c1)Cl)Cc(c(O)ccc2Cl)c2)c1,-3.95,0.0,1,G1
E-1192,picloram,"InChI=1S/C6H3Cl3N2O2/c7-1-3(10)2(8)5(9)11-4(1)6(12)13/h(H2,10,11)(H,12,13)",NQQVFXUMIDALNH-UHFFFAOYSA-N,Nc1c(Cl)c(Cl)nc(C(O)=O)c1Cl,-2.75,0.010000000000000009,2,G3
E-1193,L-tyrosine,"InChI=1S/C9H11NO3/c10-8(9(12)13)5-6-1-3-7(11)4-2-6/h1-4,8,11H,5,10H2,(H,12,13)",OUYCCCASQSFEME-UHFFFAOYSA-N,O=C(O)C(N)Cc(ccc(O)c1)c1,-2.57,0.04920751975054216,3,G5
E-1194,diallate,"InChI=1S/C10H17Cl2NOS/c1-7(2)13(8(3)4)10(14)15-6-9(12)5-11/h5,7-8H,6H2,1-4H3",SPANOECCGNXGNR-UHFFFAOYSA-N,CC(C)N(C(C)C)C(=O)SCC(Cl)=CCl,-4.08,0.1021502161851199,3,G5
E-1196,propyl_gallate,"InChI=1S/C10H12O5/c1-2-3-15-10(14)6-4-7(11)9(13)8(12)5-6/h4-5,11-13H,2-3H2,1H3",ZTHYODDOHIVTJV-UHFFFAOYSA-N,O=C(OCCC)c(cc(O)c(O)c1O)c1,-1.78,0.0,1,G1
E-1198,p-terphenyl,InChI=1S/C18H14/c1-3-7-15(8-4-1)17-11-13-18(14-12-17)16-9-5-2-6-10-16/h1-14H,XJKSTNDFUHDPQJ-UHFFFAOYSA-N,c(c(cccc1)c1)(ccc(c(cccc2)c2)c3)c3,-7.11,0.0,1,G1
E-1199,2-chloroacetanilide,"InChI=1S/C8H8ClNO/c1-6(11)10-8-5-3-2-4-7(8)9/h2-5H,1H3,(H,10,11)",KNVQTRVKSOEHPU-UHFFFAOYSA-N,O=C(Nc(c(ccc1)Cl)c1)C,-1.4,0.0,1,G1
E-1200,coniine,"InChI=1S/C7H15N/c1-2-7-5-3-4-6-8-7/h7-8H,2-6H2,1H3",QBBKKFZGCDJDQK-UHFFFAOYSA-N,N(C(CCC1)CC)C1,-1.5,0.0,1,G1
E-1201,estragole,"InChI=1S/C10H12O/c1-3-4-9-5-7-10(11-2)8-6-9/h3,5-8H,1,4H2,2H3",ZFMSMUAANRJZFM-UHFFFAOYSA-N,O(c(ccc(c1)CC=C)c1)C,-2.92,0.0,1,G1
E-1202,tetrachloroguaiacol,"InChI=1S/C7H4Cl4O2/c1-13-7-5(11)3(9)2(8)4(10)6(7)12/h12H,1H3",YZZVKLJKDFFSFL-UHFFFAOYSA-N,Clc1c(Cl)c(Cl)c(Cl)c(O)c1OC,-4.02,0.3900000000000001,2,G3
E-1203,Rhodanine,"InChI=1S/C3H3NOS2/c5-2-1-7-3(6)4-2/h1H2,(H,4,5,6)",KIWUVOGUEXMXSV-UHFFFAOYSA-N,O=C(NC(=S)S1)C1,-1.77,0.0,1,G1
E-1204,Cytosine,"InChI=1S/C4H5N3O/c5-3-1-2-6-4(8)7-3/h1-2H,(H3,5,6,7,8)",OPTASPLRGRRNAP-UHFFFAOYSA-N,N1C(=O)N=C(N)C=C1,-1.14,0.010000000000000009,2,G3
E-1205,L-Asparagine,"InChI=1S/C4H8N2O3/c5-2(4(8)9)1-3(6)7/h2H,1,5H2,(H2,6,7)(H,8,9)",DCXYFEDJOCDNAF-UHFFFAOYSA-N,O=C(O)C(N)CC(=O)N,-0.74,0.08096372644585968,4,G5
E-1206,Diethyl_Sulfone,"InChI=1S/C4H10O2S/c1-3-7(5,6)4-2/h3-4H2,1-2H3",MBDUIEKYVPVZJH-UHFFFAOYSA-N,CCS(=O)(=O)CC,0.04,0.0,1,G1
E-1207,4-Hydroxypyridine,"InChI=1S/C5H5NO/c7-5-1-3-6-4-2-5/h1-4H,(H,6,7)",GCNTZFIIOFTKIY-UHFFFAOYSA-N,n1ccc(O)cc1,1.02,0.0,1,G1
E-1208,6-Methyluracil,"InChI=1S/C5H6N2O2/c1-3-2-4(8)7-5(9)6-3/h2H,1H3,(H2,6,7,8,9)",SHVCSCWHWMSGTE-UHFFFAOYSA-N,N1C(=O)NC(=O)C=C1C,-1.26,0.0,1,G1
E-1211,Benzenesulfonamide,"InChI=1S/C6H7NO2S/c7-10(8,9)6-4-2-1-3-5-6/h1-5H,(H2,7,8,9)",KHBQMWCZKVMBLN-UHFFFAOYSA-N,O=S(=O)(N)c(cccc1)c1,-1.56,0.0,1,G1
E-1212,Thiram,InChI=1S/C6H12N2S4/c1-7(2)5(9)11-12-6(10)8(3)4/h1-4H3,KUAZQDVKQLNFPE-UHFFFAOYSA-N,N(C(=S)SSC(N(C)C)=S)(C)C,-3.9,0.0,1,G1
E-1213,"trans-2,5-Dimethylpiperazine","InChI=1S/C6H14N2/c1-5-3-8-6(2)4-7-5/h5-8H,3-4H2,1-2H3",NSMWYRLQHIXVAP-UHFFFAOYSA-N,N1C(C)CNC(C)C1,0.49,0.0,1,G1
E-1214,m-Iodobenzoic_Acid,"InChI=1S/C7H5IO2/c8-6-3-1-2-5(4-6)7(9)10/h1-4H,(H,9,10)",KVBWBCRPWVKFQT-UHFFFAOYSA-N,O=C(O)c(cccc1I)c1,-3.27,0.14500000000000002,2,G3
E-1215,2-Methoxypteridine,"InChI=1S/C7H6N4O/c1-12-7-5-6(10-4-11-7)9-3-2-8-5/h2-4H,1H3",KCCOKUSVNPDIBJ-UHFFFAOYSA-N,c1cnc2c(OC)ncnc2n1,-1.11,0.0050000000000000044,2,G3
E-1216,7-Methylthiopteridine,"InChI=1S/C7H6N4S/c1-12-6-3-9-7-5(11-6)2-8-4-10-7/h2-4H,1H3",PWBADUKEIVQTGV-UHFFFAOYSA-N,c1c(SC)nc2cncnc2n1,-1.55,0.0,1,G1
E-1217,Propylthiouracil,"InChI=1S/C7H10N2OS/c1-2-3-5-4-6(10)9-7(11)8-5/h4H,2-3H2,1H3,(H2,8,9,10,11)",KNAHARQHSZJURB-UHFFFAOYSA-N,N1C(=S)NC(=O)C=C1CCC,-2.15,0.0,1,G1
E-1218,Chlorquinox,InChI=1S/C8H2Cl4N2/c9-3-4(10)6(12)8-7(5(3)11)13-1-2-14-8/h1-2H,NHTGQOXRZFUGJX-UHFFFAOYSA-N,Clc1c(Cl)c(Cl)c2nccnc2c1Cl,-5.43,0.0,1,G1
E-1219,"2,4-D","InChI=1S/C8H6Cl2O3/c9-5-1-2-7(6(10)3-5)13-4-8(11)12/h1-3H,4H2,(H,11,12)",OVSKIKFHRZPJSS-UHFFFAOYSA-N,O=C(O)COc(c(cc(c1)Cl)Cl)c1,-2.51,0.17000000000000015,2,G3
E-1221,N-Methylanthranilic_Acid,"InChI=1S/C8H9NO2/c1-9-7-5-3-2-4-6(7)8(10)11/h2-5,9H,1H3,(H,10,11)",WVMBPWMAQDVZCM-UHFFFAOYSA-N,O=C(O)c(c(NC)ccc1)c1,-2.88,0.0,1,G1
E-1222,Phenetole,"InChI=1S/C8H10O/c1-2-9-8-6-4-3-5-7-8/h3-7H,2H2,1H3",DLRJIFUOBPOJNS-UHFFFAOYSA-N,c1ccccc1OCC,-2.33,0.0,1,G1
E-1223,Tyramine,"InChI=1S/C8H11NO/c9-6-5-7-1-3-8(10)4-2-7/h1-4,10H,5-6,9H2",DZGWFCGJZKJUFP-UHFFFAOYSA-N,NCCc1ccc(O)cc1,-1.12,0.0,1,G1
E-1224,"6-Methyl-2,4-heptadione","InChI=1S/C8H14O2/c1-6(2)4-8(10)5-7(3)9/h6H,4-5H2,1-3H3",IGMOYJSFRIASIE-UHFFFAOYSA-N,CC(C)CC(=O)CC(=O)C,-1.6,0.0,1,G1
E-1226,Benazolin,"InChI=1S/C9H6ClNO3S/c10-5-2-1-3-6-8(5)11(4-7(12)13)9(14)15-6/h1-3H,4H2,(H,12,13)",HYJSGOXICXYZGS-UHFFFAOYSA-N,OC(=O)CN1C(=O)Sc2cccc(Cl)c12,-2.61,0.0,1,G1
E-1227,DL-2-(2-Chlorophenoxy)propionic_Acid,"InChI=1S/C9H9ClO3/c1-6(9(11)12)13-8-4-2-3-7(10)5-8/h2-6H,1H3,(H,11,12)",YNTJKQDWYXUTLZ-UHFFFAOYSA-N,OC(=O)C(Oc1cc(Cl)ccc1)C,-2.22,0.0,1,G1
E-1229,Dulcin,"InChI=1S/C9H12N2O2/c1-2-13-8-5-3-7(4-6-8)11-9(10)12/h3-6H,2H2,1H3,(H3,10,11,12)",GGLIEWRLXDLBBF-UHFFFAOYSA-N,CCOc1ccc(NC(N)=O)cc1,-2.17,0.0,1,G1
E-1230,Pelargonic_Acid,"InChI=1S/C9H18O2/c1-2-3-4-5-6-7-8-9(10)11/h2-8H2,1H3,(H,10,11)",FBUKVWPVBMHYJY-UHFFFAOYSA-N,O=C(O)CCCCCCCC,-2.75,0.0,1,G1
E-1233,p-Acetoxy-acetanilide,"InChI=1S/C10H11NO3/c1-7(12)11-9-3-5-10(6-4-9)14-8(2)13/h3-6H,1-2H3,(H,11,12)",UJAOSPFULOFZRR-UHFFFAOYSA-N,CC(=O)Nc1ccc(OC(C)=O)cc1,-1.91,0.0,1,G1
E-1234,"5,6,7,8-Tetrahydro-2-naphthol","InChI=1S/C10H12O/c11-10-6-5-8-3-1-2-4-9(8)7-10/h5-7,11H,1-4H2",UMKXSOXZAXIOPJ-UHFFFAOYSA-N,Oc1cc2CCCCc2cc1,-1.99,0.0,1,G1
E-1235,Carvacrol,"InChI=1S/C10H14O/c1-7(2)9-5-4-8(3)10(11)6-9/h4-7,11H,1-3H3",RECUKUPTGUEGMW-UHFFFAOYSA-N,Oc(c(ccc1C(C)C)C)c1,-2.08,0.0,1,G1
E-1236,d-Fenchone,"InChI=1S/C10H16O/c1-9(2)7-4-5-10(3,6-7)8(9)11/h7H,4-6H2,1-3H3",LHXDLQBQYFFVNW-UHFFFAOYSA-N,O=C(C(CC1C2)(C2)C)C1(C)C,-1.85,0.0,1,G1
E-1237,l-Menthone,"InChI=1S/C10H18O/c1-7(2)9-5-4-8(3)6-10(9)11/h7-9H,4-6H2,1-3H3",NFLGAXVYCFJBMK-UHFFFAOYSA-N,O=C(C(CCC1C)C(C)C)C1,-2.49,0.0697000000000001,2,G3
E-1238,"2,4-Dimethylquinoline","InChI=1S/C11H11N/c1-8-7-9(2)12-11-6-4-3-5-10(8)11/h3-7H,1-2H3",ZTNANFDSJRRZRJ-UHFFFAOYSA-N,n(c(c(c(c1)C)ccc2)c2)c1C,-1.94,0.0,1,G1
E-1239,Dinitramine,"InChI=1S/C11H13F3N4O4/c1-3-16(4-2)9-7(17(19)20)5-6(11(12,13)14)8(15)10(9)18(21)22/h5H,3-4,15H2,1-2H3",OFDYMSKSGFSLLM-UHFFFAOYSA-N,CCN(CC)c1c(cc(c(N)c1N(=O)=O)C(F)(F)F)N(=O)=O,-5.47,0.9544999999999997,2,G2
E-1240,Dimethyl_Carbate,"InChI=1S/C11H14O4/c1-14-10(12)8-6-3-4-7(5-6)9(8)11(13)15-2/h3-4,6-9H,5H2,1-2H3",VGQLNJWOULYVFV-UHFFFAOYSA-N,C1=CC(C2)C(C(=O)OC)C(C(=O)OC)C12,-1.2,0.0,1,G1
E-1241,Phenbutamide,"InChI=1S/C11H16N2O3S/c1-2-3-9-12-11(14)13-17(15,16)10-7-5-4-6-8-10/h4-8H,2-3,9H2,1H3,(H2,12,13,14)",AFOGBLYPWJJVAL-UHFFFAOYSA-N,c1ccccc1S(=O)(=O)NC(=O)NCCCC,-3.05,0.0,1,G1
E-1242,Ethirimol,"InChI=1S/C11H19N3O/c1-4-6-7-9-8(3)13-11(12-5-2)14-10(9)15/h4-7H2,1-3H3,(H2,12,13,14,15)",BBXXLROWFHWFQY-UHFFFAOYSA-N,CCCCc1c(C)nc(NCC)nc1O,-3.02,0.06499999999999995,2,G3
E-1243,Quinonamid,"InChI=1S/C12H6Cl3NO3/c13-7-8(16-12(19)11(14)15)10(18)6-4-2-1-3-5(6)9(7)17/h1-4,11H,(H,16,19)",ZIEWAMOXCOLNSJ-UHFFFAOYSA-N,c1ccc2C(=O)C(Cl)=C(NC(=O)C(Cl)Cl)C(=O)c2c1,-5.03,0.0,1,G1
E-1244,Quinhydrone,"InChI=1S/C12H10O4/c13-8-3-5-12(16,6-4-8)10-7-9(14)1-2-11(10)15/h1-7,14-16H",KKIYXTAGNVTYLV-UHFFFAOYSA-N,O=C1C=CC(c2cc(ccc2O)O)(C=C1)O,-1.73,0.0,1,G1
E-1245,4-Hexylresorcinol,"InChI=1S/C12H18O2/c1-2-3-4-5-6-10-7-8-11(13)9-12(10)14/h7-9,13-14H,2-6H2,1H3",WFJIVOKAWHGMBH-UHFFFAOYSA-N,Oc(c(ccc1O)CCCCCC)c1,-2.59,0.0,1,G1
E-1246,Benodanil,"InChI=1S/C13H10INO/c14-12-9-5-4-8-11(12)13(16)15-10-6-2-1-3-7-10/h1-9H,(H,15,16)",LJOZMWRYMKECFF-UHFFFAOYSA-N,Ic1ccccc1C(=O)Nc2ccccc2,-4.21,0.0,1,G1
E-1247,Benfluralin,"InChI=1S/C13H16F3N3O4/c1-3-5-6-17(4-2)12-10(18(20)21)7-9(13(14,15)16)8-11(12)19(22)23/h7-8H,3-6H2,1-2H3",SMDHCQAYESWHAE-UHFFFAOYSA-N,CCCCN(CC)c1c(cc(cc1N(=O)=O)C(F)(F)F)N(=O)=O,-5.53,1.1788200315004267,3,G4
E-1248,Bupirimate,"InChI=1S/C13H24N4O3S/c1-6-8-9-11-10(3)15-13(14-7-2)16-12(11)20-21(18,19)17(4)5/h6-9H2,1-5H3,(H,14,15,16)",DSKJPMWIHSOYEA-UHFFFAOYSA-N,CCCCc1c(C)nc(NCC)nc1OS(=O)(=O)N(C)C,-4.16,0.0,1,G1
E-1250,Diphenic_Acid,"InChI=1S/C14H10O4/c15-13(16)11-7-3-1-5-9(11)10-6-2-4-8-12(10)14(17)18/h1-8H,(H,15,16)(H,17,18)",GWZCCUDJHOGOSO-UHFFFAOYSA-N,O=C(O)c(c(c(c(ccc1)C(=O)O)c1)ccc2)c2,-2.28,0.0,1,G1
E-1251,Benzoin,InChI=1S/C13H10O2/c14-13(11-7-3-1-4-8-11)15-12-9-5-2-6-10-12/h1-10H,FCJSHPDYVMKCHI-UHFFFAOYSA-N,c1ccccc1C(=O)Oc2ccccc2,-2.85,0.0,1,G1
E-1252,Pindone,"InChI=1S/C14H14O3/c1-14(2,3)13(17)10-11(15)8-6-4-5-7-9(8)12(10)16/h4-7,10H,1-3H3",RZKYEQDPDZUERB-UHFFFAOYSA-N,O=C(C(C(=O)c(c1ccc2)c2)C1=O)C(C)(C)C,-4.11,0.0,1,G1
E-1253,Methapyrilene,"InChI=1S/C14H19N3S/c1-16(2)9-10-17(12-13-6-5-11-18-13)14-7-3-4-8-15-14/h3-8,11H,9-10,12H2,1-2H3",HNJJXZKZRAWDPF-UHFFFAOYSA-N,CN(C)CCN(Cc1cccs1)c2ccccn2,-2.64,0.0,1,G1
E-1254,Morin,"InChI=1S/C15H10O7/c16-6-1-2-8(9(18)3-6)15-14(21)13(20)12-10(19)4-7(17)5-11(12)22-15/h1-5,16-19,21H",YXOLAZRVSSWPPT-UHFFFAOYSA-N,Oc1cc(O)c2C(=O)C(O)=C(c3ccc(O)cc3O)Oc2c1,-3.08,0.0,1,G1
E-1255,Bendroflumethiazide,"InChI=1S/C15H14F3N3O4S2/c16-15(17,18)10-7-11-13(8-12(10)26(19,22)23)27(24,25)21-14(20-11)6-9-4-2-1-3-5-9/h1-5,7-8,14,20-21H,6H2,(H2,19,22,23)",HDWIHXWEUNVBIY-UHFFFAOYSA-N,NS(=O)(=O)c3cc2c(NC(Cc1ccccc1)NS2(=O)=O)cc3C(F)(F)F,-3.59,0.0,1,G1
E-1257,Metolachlor,"InChI=1S/C15H22ClNO2/c1-5-13-8-6-7-11(2)15(13)17(14(18)9-16)12(3)10-19-4/h6-8,12H,5,9-10H2,1-4H3",WVQBLGZPHOPPFO-UHFFFAOYSA-N,CCc1cccc(C)c1N(C(C)COC)C(=O)CCl,-2.73,0.0,1,G1
E-1258,Hematein,"InChI=1S/C16H12O6/c17-10-2-1-8-13-9-4-12(19)11(18)3-7(9)5-16(13,21)6-22-15(8)14(10)20/h1-4,17,19-21H,5-6H2",HLUCICHZHWJHLL-UHFFFAOYSA-N,O=C1C=C2CC3(O)COc4c(O)c(O)ccc4C3=C2C=C1O,-2.7,0.0,1,G1
E-1259,Fenarimol,"InChI=1S/C17H12Cl2N2O/c18-14-7-5-12(6-8-14)17(22,13-9-20-11-21-10-13)15-3-1-2-4-16(15)19/h1-11,22H",NHOWDZOIZKMVAI-UHFFFAOYSA-N,n(cc(C(O)(c(ccc(c1)Cl)c1)c(c(ccc2)Cl)c2)cn3)c3,-4.38,0.0,1,G1
E-1260,Antazoline,"InChI=1S/C17H19N3/c1-3-7-15(8-4-1)13-20(14-17-18-11-12-19-17)16-9-5-2-6-10-16/h1-10H,11-14H2,(H,18,19)",REYFJDPCWQRWAA-UHFFFAOYSA-N,N1CCN=C1CN(c2ccccc2)Cc3ccccc3,-2.6,0.0,1,G1
E-1261,Dienestrol,"InChI=1S/C18H18O2/c1-3-17(13-5-9-15(19)10-6-13)18(4-2)14-7-11-16(20)12-8-14/h3-12,17-20H,1-2H2",UBEHJDYYBJLBAZ-UHFFFAOYSA-N,c1cc(O)ccc1C(C=C)C(C=C)c2ccc(O)cc2,-4.95,0.0,1,G1
E-1263,Hydrocinchonine,"InChI=1S/C19H24N2O/c1-2-13-12-21-10-8-14(13)11-18(21)19(22)16-7-9-20-17-6-4-3-5-15(16)17/h3-7,9,13-14,18-19,22H,2,8,10-12H2,1H3",WFJNHVWTKZUUTR-UHFFFAOYSA-N,c12ccccc1nccc2C(O)C3N(C4)CCC(C4CC)C3,-2.63,0.020000000000000018,2,G3
E-1264,Epitiostanol,"InChI=1S/C19H30OS/c1-18-8-7-14-12(13(18)5-6-17(18)20)4-3-11-9-15-16(21-15)10-19(11,14)2/h11-17,20H,3-10H2,1-2H3",OBMLHUPNRURLOK-UHFFFAOYSA-N,C1(S5)C5CC2CCC3C4CCC(O)C4(C)CCC3C2(C)C1,-5.41,0.0,1,G1
E-1265,Prochlorperazine,"InChI=1S/C20H24ClN3S/c1-22-11-13-23(14-12-22)9-4-10-24-17-5-2-3-6-19(17)25-20-8-7-16(21)15-18(20)24/h2-3,5-8,15H,4,9-14H2,1H3",WIKYUJGCLQQFNW-UHFFFAOYSA-N,CN4CCN(CCCN2c1ccccc1Sc3ccc(Cl)cc23)CC4,-4.4,0.0,1,G1
E-1266,Abietic_Acid,"InChI=1S/C20H30O2/c1-13(2)14-6-8-16-15(12-14)7-9-17-19(16,3)10-5-11-20(17,4)18(21)22/h7,12-13,16-17H,5-6,8-11H2,1-4H3,(H,21,22)",RSWGJHLUYNHPMX-UHFFFAOYSA-N,O=C(O)C(C(C(C(C(=C1)C=C(C2)C(C)C)C2)(CC3)C)C1)(C3)C,-3.8,0.0,1,G1
E-1267,Ethisterone,"InChI=1S/C21H28O2/c1-4-21(23)12-9-18-16-6-5-14-13-15(22)7-10-19(14,2)17(16)8-11-20(18,21)3/h1,13,16-18,23H,5-12H2,2-3H3",CHNXZKVNWQUJIB-UHFFFAOYSA-N,C1C(=O)C=C2CCC3C4CCC(O)(C#C)C4(C)CCC3C2(C)C1,-5.66,0.029999999999999805,2,G3
E-1268,Ethyl_Biscoumacetate,"InChI=1S/C22H16O8/c1-2-28-20(25)15(16-18(23)11-7-3-5-9-13(11)29-21(16)26)17-19(24)12-8-4-6-10-14(12)30-22(17)27/h3-10,15,23-24H,2H2,1H3",JCLHQFUTFHUXNN-UHFFFAOYSA-N,c1ccc2OC(=O)C(C(C(=O)OCC)C3=C(O)c4ccccc4OC3=O)=C(O)c2c1,-3.66,0.11499999999999999,2,G3
E-1269,Amikacin,"InChI=1S/C22H43N5O13/c23-2-1-8(29)20(36)27-7-3-6(25)18(39-22-16(34)15(33)13(31)9(4-24)37-22)17(35)19(7)40-21-14(32)11(26)12(30)10(5-28)38-21/h6-19,21-22,28-35H,1-5,23-26H2,(H,27,36)",LKCWBDHBTVXHDL-UHFFFAOYSA-N,NCCC(O)C(=O)NC2CC(N)C(OC1OC(CN)C(O)C(O)C1O)C(O)C2OC3OC(CO)C(O)C(N)C3O,-0.5,0.0,1,G1
E-1270,Glyburide,"InChI=1S/C23H28ClN3O5S/c1-32-21-12-9-17(24)15-20(21)22(28)25-14-13-16-7-10-19(11-8-16)33(30,31)27-23(29)26-18-5-3-2-4-6-18/h7-12,15,18H,2-6,13-14H2,1H3,(H,25,28)(H2,26,27,29)",ZNNLBTZKUZBEKO-UHFFFAOYSA-N,c1c(Cl)ccc(OC)c1C(=O)NCCc2ccc(S(=O)(=O)NC(=O)NC3CCCCC3)cc2,-5.09,0.0,1,G1
E-1271,Diosgenin,"InChI=1S/C27H42O3/c1-16-7-12-27(29-15-16)17(2)24-23(30-27)14-22-20-6-5-18-13-19(28)8-10-25(18,3)21(20)9-11-26(22,24)4/h5,16-17,19-24,28H,6-15H2,1-4H3",WQLVFSAGQJTQCK-UHFFFAOYSA-N,C1C(O)CC2=CCC3C4CC5OC6(OCC(C)CC6)C(C)C5C4(C)CCC3C2(C)C1,-7.32,0.0,1,G1
E-1273,benzocaine,"InChI=1S/C9H11NO2/c1-2-12-9(11)7-3-5-8(10)6-4-7/h3-6H,2,10H2,1H3",BLFLLBZGZJTVJG-UHFFFAOYSA-N,O=C(OCC)c(ccc(N)c1)c1,-2.32,0.1947913948304699,4,G5
E-1274,acetylsalicylic_acid,"InChI=1S/C9H8O4/c1-6(10)13-8-5-3-2-4-7(8)9(11)12/h2-5H,1H3,(H,11,12)",BSYNRYMUTXBXSQ-UHFFFAOYSA-N,O=C(Oc(c(ccc1)C(=O)O)c1)C,-1.72,0.06235917467916533,3,G5
E-1276,atrazine,"InChI=1S/C8H14ClN5/c1-4-10-7-12-6(9)13-8(14-7)11-5(2)3/h5H,4H2,1-3H3,(H2,10,11,12,13,14)",MXWJVTOOROXGIU-UHFFFAOYSA-N,n(c(nc(n1)NC(C)C)NCC)c1Cl,-3.85,0.17906485479351383,3,G5
E-1280,phenytoin,"InChI=1S/C15H12N2O2/c18-13-15(17-14(19)16-13,11-7-3-1-4-8-11)12-9-5-2-6-10-12/h1-10H,(H2,16,17,18,19)",CXOFVDLJLONNDW-UHFFFAOYSA-N,O=C1NC(=O)C(N1)(c2ccccc2)c3ccccc3,-3.99,0.08789402710082177,5,G5
E-1281,diazepam,"InChI=1S/C16H13ClN2O/c1-19-14-8-7-12(17)9-13(14)16(18-10-15(19)20)11-5-3-2-4-6-11/h2-9H,10H2,1H3",AAOVKJBEBIDNHE-UHFFFAOYSA-N,O=C(N(c(c(cc(c1)Cl)C(=N2)c(cccc3)c3)c1)C)C2,-3.76,0.039999999999999813,2,G3
E-1286,phenolphthalein,"InChI=1S/C20H14O4/c21-15-9-5-13(6-10-15)20(14-7-11-16(22)12-8-14)18-4-2-1-3-17(18)19(23)24-20/h1-12,21-22H",KJFMBFZCATUALV-UHFFFAOYSA-N,O=C(OC(c1cccc2)(c(ccc(O)c3)c3)c(ccc(O)c4)c4)c12,-2.9,0.0,1,G1
E-1288,chlorpyriphos,"InChI=1S/C9H11Cl3NO3PS/c1-3-14-17(18,15-4-2)16-9-7(11)5-6(10)8(12)13-9/h5H,3-4H2,1-2H3",SBPBAQFWLVIOKP-UHFFFAOYSA-N,CCOP(=S)(OCC)Oc1nc(Cl)c(Cl)cc1Cl,-5.49,0.08999999999999986,2,G3
E-1289,prostaglandin_E2,"InChI=1S/C20H32O5/c1-2-3-6-9-15(21)12-13-17-16(18(22)14-19(17)23)10-7-4-5-8-11-20(24)25/h4,7,12-13,15-17,19,21,23H,2-3,5-6,8-11,14H2,1H3,(H,24,25)",XEYBRNLFEZDVAW-UHFFFAOYSA-N,CCCCCC(O)C=CC1C(O)CC(=O)C1CC=CCCCC(=O)O,-2.47,0.0,1,G1
E-1291,chlordane,"InChI=1S/C10H6Cl8/c11-3-1-2-4(5(3)12)9(16)7(14)6(13)8(2,15)10(9,17)18/h2-5H,1H2",BIWJNBZANLAXMG-UHFFFAOYSA-N,ClC1CC2C(C1Cl)C3(Cl)C(=C(Cl)C2(Cl)C3(Cl)Cl)Cl,-6.86,0.7550000000000003,2,G2
I-2,2_amino_5_bromobenzoic_acid,"InChI=1S/C7H6BrNO2/c8-4-1-2-6(9)5(3-4)7(10)11/h1-3H,9H2,(H,10,11)",CUKXRHLWPSBCTI-UHFFFAOYSA-N,Brc1cc(C(O)=O)c(N)cc1,-3.07,0.0,1,G1
I-3,4_iodophenol,"InChI=1S/C6H5IO/c7-5-1-3-6(8)4-2-5/h1-4,8H",VSMDINRNYYEDRN-UHFFFAOYSA-N,c1cc(ccc1O)I,-1.71,0.0,1,G1
I-4,5_bromo_2_4_dihydroxybenzoic_acid,"InChI=1S/C7H5BrO4/c8-4-1-3(7(11)12)5(9)2-6(4)10/h1-2,9-10H,(H,11,12)",ZRBCISXJLHZOMS-UHFFFAOYSA-N,Oc1c(Br)cc(C(O)=O)c(O)c1,-2.62,0.0,1,G1
I-6,acetazolamide,"InChI=1S/C4H6N4O3S2/c1-2(9)6-3-7-8-4(12-3)13(5,10)11/h1H3,(H2,5,10,11)(H,6,7,9)",BZKPWHYZMXOIDC-UHFFFAOYSA-N,S(=O)(=O)(N)c1sc(NC(=O)C)nn1,-2.44,0.05734883511361756,3,G5
I-7,alprenolol,"InChI=1S/C15H23NO2/c1-4-7-13-8-5-6-9-15(13)18-11-14(17)10-16-12(2)3/h4-6,8-9,12,14,16-17H,1,7,10-11H2,2-3H3",PAZJSJFMUHDSTF-UHFFFAOYSA-N,CC(C)NCC(O)COc1ccccc1CC=C,-2.63,0.0,1,G1
I-8,amantadine,"InChI=1S/C10H17N/c11-10-4-7-1-8(5-10)3-9(2-7)6-10/h7-9H,1-6,11H2",DKNWSYNQZKUICI-UHFFFAOYSA-N,C1C2CC3CC(CC1C3)(N)C2,-1.85,0.0,1,G1
I-9,amitryptyline,"InChI=1S/C20H23N/c1-21(2)15-7-12-20-18-10-5-3-8-16(18)13-14-17-9-4-6-11-19(17)20/h3-6,8-12H,7,13-15H2,1-2H3",KRMDCWKBEZIMAB-UHFFFAOYSA-N,CN(C)CC\C=C1\c2ccccc2CCc2ccccc12,-4.55,0.04499999999999993,2,G3
I-10,amodiaquine,"InChI=1S/C20H22ClN3O/c1-3-24(4-2)13-14-11-16(6-8-20(14)25)23-18-9-10-22-19-12-15(21)5-7-17(18)19/h5-12,25H,3-4,13H2,1-2H3,(H,22,23)",OVCDSSHSILBFBN-UHFFFAOYSA-N,c1(c(CN(CC)CC)cc(cc1)Nc1ccnc2c1ccc(c2)Cl)O,-5.79,0.0,1,G1
I-11,atropine,"InChI=1S/C17H23NO3/c1-18-13-7-8-14(18)10-15(9-13)21-17(20)16(11-19)12-5-3-2-4-6-12/h2-6,13-16,19H,7-11H2,1H3/t13-,14+,15+,16?",RKUNBYITZUJHSG-SPUOUPEWSA-N,CN1[C@H]2CC[C@@H]1C[C@@H](C2)OC(=O)C(CO)C1=CC=CC=C1,-2.0,0.0,1,G1
I-12,azathioprine,"InChI=1S/C9H7N7O2S/c1-15-4-14-7(16(17)18)9(15)19-8-5-6(11-2-10-5)12-3-13-8/h2-4H,1H3,(H,10,11,12,13)",LMEKQMALGUDUQG-UHFFFAOYSA-N,S(c1n(cnc1N(=O)=O)C)c1ncnc2nc[nH]c12,-3.21,0.0,1,G1
I-13,benzylimidazole,"InChI=1S/C10H10N2/c1-2-4-10(5-3-1)8-12-7-6-11-9-12/h1-7,9H,8H2",KKKDZZRICRFGSD-UHFFFAOYSA-N,n1(Cc2ccccc2)cncc1,-2.26,0.0,1,G1
I-14,bromogramine,"InChI=1S/C11H13BrN2/c1-14(2)7-8-6-13-11-4-3-9(12)5-10(8)11/h3-6,13H,7H2,1-2H3",FSERHDPEOFYMMK-UHFFFAOYSA-N,Brc1cc2c(CN(C)C)c[nH]c2cc1,-4.06,0.0,1,G1