ID,Name,InChI,InChIKey,SMILES,Solubility,SD,Occurrences,Group
D-2108,"benzoic acid,","InChI=1S/C16H20N2O3/c1-9(2)16(4)15(20)17-13(18-16)11-7-6-10(3)8-12(11)14(19)21-5/h6-9H,1-5H3,(H,17,18,20)",TYIHVCIQMMTVHE-UHFFFAOYSA-N,COC(=O)c1cc(C)ccc1C2=NC(C)(C(C)C)C(=O)N2,-2.326,0.10299999999999998,2,G3
D-2110,"carbamic acid, [2-(4-phenoxyphenoxy)ethyl]-, et","InChI=1S/C17H19NO4/c1-2-20-17(19)18-12-13-21-14-8-10-16(11-9-14)22-15-6-4-3-5-7-15/h3-11H,2,12-13H2,1H3,(H,18,19)",HJUFTIJOISQSKQ-UHFFFAOYSA-N,CCOC(=O)NCCOc1ccc(Oc2ccccc2)cc1,-4.7010000000000005,0.00949999999999962,2,G3
D-2114,cinmethylin,"InChI=1S/C18H26O2/c1-13(2)18-10-9-17(4,20-18)16(11-18)19-12-15-8-6-5-7-14(15)3/h5-8,13,16H,9-12H2,1-4H3",QMTNOLKHSWIQBE-UHFFFAOYSA-N,CC(C)C12CCC(C)(O1)C(C2)OCc3ccccc3C,-3.639,0.0,1,G1
B-1,3-pentyl nitrate,"InChI=1S/C5H11NO3/c1-3-5(4-2)9-6(7)8/h5H,3-4H2,1-2H3",WQZKKVJFBZPJSU-UHFFFAOYSA-N,CCC(CC)O[N+]([O-])=O,-2.4522,0.0,1,G1
B-2,5-bromo-3-hydroxybenzaldehyde,"InChI=1S/C7H5BrO2/c8-6-1-5(4-9)2-7(10)3-6/h1-4,10H",XVFGERBEZKEGSS-UHFFFAOYSA-N,Oc1cc(Br)cc(C=O)c1,-3.2502,0.0,1,G1
B-3,meperidine,"InChI=1S/C15H21NO2.ClH/c1-3-18-14(17)15(9-11-16(2)12-10-15)13-7-5-4-6-8-13;/h4-8H,3,9-12H2,1-2H3;1H",WCNLCIJMFAJCPX-UHFFFAOYSA-N,[H+].[Cl-].CCOC(=O)C1(CCN(C)CC1)c2ccccc2,-1.6368,0.0,1,G1
B-6,estradiol,"InChI=1S/C18H24O2/c1-18-9-8-14-13-5-3-12(19)10-11(13)2-4-15(14)16(18)6-7-17(18)20/h3,5,10,14-17,19-20H,2,4,6-9H2,1H3/t14-,15-,16+,17+,18+/m1/s1",VOXZDWNPVJITMN-ZBRFXRBCSA-N,C[C@]12CC[C@H]3[C@@H](CCc4cc(O)ccc34)[C@@H]1CC[C@@H]2O,-4.8789,0.0,1,G1
B-7,"2,6-dichlorobenzoic acid","InChI=1S/C7H4Cl2O2/c8-4-2-1-3-5(9)6(4)7(10)11/h1-3H,(H,10,11)",MRUDNSFOFOQZDA-UHFFFAOYSA-N,OC(=O)c1c(Cl)cccc1Cl,-1.1309,0.0,1,G1
B-9,thalidomide,"InChI=1S/C13H10N2O4/c16-10-6-5-9(11(17)14-10)15-12(18)7-3-1-2-4-8(7)13(15)19/h1-4,9H,5-6H2,(H,14,16,17)",UEJJHQNACJXSKW-UHFFFAOYSA-N,O=C1CCC(N2C(=O)c3ccccc3C2=O)C(=O)N1,-2.6758,0.5121,2,G2
B-13,reserpine,"InChI=1S/C33H40N2O9/c1-38-19-7-8-20-21-9-10-35-16-18-13-27(44-32(36)17-11-25(39-2)30(41-4)26(12-17)40-3)31(42-5)28(33(37)43-6)22(18)15-24(35)29(21)34-23(20)14-19/h7-8,11-12,14,18,22,24,27-28,31,34H,9-10,13,15-16H2,1-6H3/t18-,22+,24-,27-,28+,31+/m1/s1",QEVHRUUCFGRFIF-MDEJGZGSSA-N,CO[C@H]1[C@@H](C[C@@H]2CN3CCc4c([nH]c5cc(OC)ccc45)[C@H]3C[C@@H]2[C@@H]1C(=O)OC)OC(=O)c6cc(OC)c(OC)c(OC)c6,-3.9208,0.0,1,G1
B-14,niclosamide,"InChI=1S/C13H8Cl2N2O4/c14-7-1-4-12(18)9(5-7)13(19)16-11-3-2-8(17(20)21)6-10(11)15/h1-6,18H,(H,16,19)",RJMUSRYZPJIFPJ-UHFFFAOYSA-N,Oc1ccc(Cl)cc1C(=O)Nc2ccc(cc2Cl)[N+]([O-])=O,-5.3106,0.6115805316282287,3,G4
B-20,piperonyl butoxide,"InChI=1S/C19H30O5/c1-3-5-7-20-8-9-21-10-11-22-14-17-13-19-18(23-15-24-19)12-16(17)6-4-2/h12-13H,3-11,14-15H2,1-2H3",FIPWRIJSWJWJAI-UHFFFAOYSA-N,CCCCOCCOCCOCc1cc2OCOc2cc1CCC,-4.3742,0.0,1,G1
B-22,5-bromouracil,"InChI=1S/C4H3BrN2O2/c5-2-1-6-4(9)7-3(2)8/h1H,(H2,6,7,8,9)",LQLQRFGHAALLLE-UHFFFAOYSA-N,BrC1=CNC(=O)NC1=O,-2.3698,0.0,1,G1
B-24,adrenaline tartrate (1:1),"InChI=1S/C9H13NO3.C4H6O6/c1-10-5-9(13)6-2-3-7(11)8(12)4-6;5-1(3(7)8)2(6)4(9)10/h2-4,9-13H,5H2,1H3;1-2,5-6H,(H,7,8)(H,9,10)/t9-;1-,2-/m01/s1",YLXIPWWIOISBDD-NDAAPVSOSA-N,CNC[C@H](O)c1ccc(O)c(O)c1.O[C@H]([C@@H](O)C(O)=O)C(O)=O,0.0,0.0,1,G1
B-25,epinephrine,"InChI=1S/C9H13NO3/c1-10-5-9(13)6-2-3-7(11)8(12)4-6/h2-4,9-13H,5H2,1H3/t9-/m0/s1",UCTWMZQNUQWSLP-VIFPVBQESA-N,CNC[C@H](O)c1ccc(O)c(O)c1,-3.0077,0.0,1,G1
B-28,mechlorethamine,"InChI=1S/C5H11Cl2N/c1-8(4-2-6)5-3-7/h2-5H2,1H3",HAWPXGHAZFHHAD-UHFFFAOYSA-N,CN(CCCl)CCCl,-1.1141,0.0,1,G1
B-29,norethindrone acetate,"InChI=1S/C22H28O3/c1-4-22(25-14(2)23)12-10-20-19-7-5-15-13-16(24)6-8-17(15)18(19)9-11-21(20,22)3/h1,13,17-20H,5-12H2,2-3H3/t17-,18+,19+,20-,21-,22-/m0/s1",IMONTRJLAWHYGT-ZCPXKWAGSA-N,CC(=O)O[C@]1(CC[C@H]2[C@@H]3CCC4=CC(=O)CC[C@@H]4[C@H]3CC[C@]12C)C#C,-4.8041,0.0,1,G1
B-31,thiotepa,"InChI=1S/C6H12N3PS/c11-10(7-1-2-7,8-3-4-8)9-5-6-9/h1-6H2",FOCVUCIESVLUNU-UHFFFAOYSA-N,S=[P](N1CC1)(N2CC2)N3CC3,0.0018,0.0,1,G1
B-38,prasterone,"InChI=1S/C19H28O2/c1-18-9-7-13(20)11-12(18)3-4-14-15-5-6-17(21)19(15,2)10-8-16(14)18/h3,13-16,20H,4-11H2,1-2H3/t13-,14-,15-,16-,18-,19-/m0/s1",FMGSKLZLMKYGDP-USOAJAOKSA-N,C[C@]12CC[C@H]3[C@@H](CC=C4C[C@@H](O)CC[C@]34C)[C@@H]1CCC2=O,-3.6576,0.23219999999999996,2,G3
B-39,indomethacin,"InChI=1S/C19H16ClNO4/c1-11-15(10-18(22)23)16-9-14(25-2)7-8-17(16)21(11)19(24)12-3-5-13(20)6-4-12/h3-9H,10H2,1-2H3,(H,22,23)",CGIGDMFJXJATDK-UHFFFAOYSA-N,COc1ccc2n(c(C)c(CC(O)=O)c2c1)C(=O)c3ccc(Cl)cc3,-5.5817,0.4808499999999998,2,G3
B-41,sodium salicylate,"InChI=1S/C7H6O3.Na/c8-6-4-2-1-3-5(6)7(9)10;/h1-4,8H,(H,9,10);/q;+1/p-1",ABBQHOQBGMUPJH-UHFFFAOYSA-M,[Na+].Oc1ccccc1C([O-])=O,-0.1075,0.0,1,G1
B-43,chlorhexidine,"InChI=1S/C22H30Cl2N10/c23-15-5-9-17(10-6-15)31-21(27)33-19(25)29-13-3-1-2-4-14-30-20(26)34-22(28)32-18-11-7-16(24)8-12-18/h5-12H,1-4,13-14H2,(H5,25,27,29,31,33)(H5,26,28,30,32,34)",GHXZTYHSJHQHIJ-UHFFFAOYSA-N,NC(Nc1ccc(Cl)cc1)=NC(N)=NCCCCCCN=C(N)N=C(N)Nc2ccc(Cl)cc2,-2.8006,0.0,1,G1
B-44,4-dimethylamino-3'-methylazobenzene,"InChI=1S/C15H17N3/c1-12-5-4-6-14(11-12)17-16-13-7-9-15(10-8-13)18(2)3/h4-11H,1-3H3",LVTFSVIRYMXRSR-UHFFFAOYSA-N,CN(C)c1ccc(cc1)N=Nc2cccc(C)c2,-5.7769,0.0,1,G1
B-45,isoflurophate,"InChI=1S/C6H14FO3P/c1-5(2)9-11(7,8)10-6(3)4/h5-6H,1-4H3",MUCZHBLJLSDCSD-UHFFFAOYSA-N,CC(C)O[P](F)(=O)OC(C)C,-1.0777,0.0,1,G1
B-49,quinidine,"InChI=1S/C20H24N2O2/c1-3-13-12-22-9-7-14(13)10-19(22)20(23)16-6-8-21-18-5-4-15(24-2)11-17(16)18/h3-6,8,11,13-14,19-20,23H,1,7,9-10,12H2,2H3/t13-,14-,19+,20-/m0/s1",LOUPRKONTZGTKE-LHHVKLHASA-N,COc1ccc2nccc([C@H](O)[C@H]3C[C@@H]4CCN3C[C@@H]4C=C)c2c1,-3.365,0.0,1,G1
B-50,adenosine triphosphate,"InChI=1S/C10H16N5O13P3/c11-8-5-9(13-2-12-8)15(3-14-5)10-7(17)6(16)4(26-10)1-25-30(21,22)28-31(23,24)27-29(18,19)20/h2-4,6-7,10,16-17H,1H2,(H,21,22)(H,23,24)(H2,11,12,13)(H2,18,19,20)",ZKHQWZAMYRWXGA-UHFFFAOYSA-N,Nc1ncnc2n(cnc12)C3OC(CO[P](O)(=O)O[P](O)(=O)O[P](O)(O)=O)C(O)C3O,0.2948,0.0,1,G1
B-54,glutamine,"InChI=1S/C5H10N2O3/c6-3(5(9)10)1-2-4(7)8/h3H,1-2,6H2,(H2,7,8)(H,9,10)/t3-/m0/s1",ZDXPYRJPNDTMRX-VKHMYHEASA-N,N[C@@H](CCC(N)=O)C(O)=O,-0.5488,0.0,1,G1
B-56,lysine,"InChI=1S/C6H14N2O2/c7-4-2-1-3-5(8)6(9)10/h5H,1-4,7-8H2,(H,9,10)",KDXKERNSBIXSRK-UHFFFAOYSA-N,NCCCCC(N)C(O)=O,0.8351,0.0,1,G1
B-57,cystine,"InChI=1S/C6H12N2O4S2/c7-3(5(9)10)1-13-14-2-4(8)6(11)12/h3-4H,1-2,7-8H2,(H,9,10)(H,11,12)/t3-,4-/m0/s1",LEVWYRKDKASIDU-IMJSIDKUSA-N,N[C@@H](CSSC[C@H](N)C(O)=O)C(O)=O,-3.102,0.0,1,G1
B-58,glycerophosphoric acid,"InChI=1S/C3H9O6P/c4-1-3(5)2-9-10(6,7)8/h3-5H,1-2H2,(H2,6,7,8)",AWUCVROLDVIAJX-UHFFFAOYSA-N,OCC(O)CO[P](O)(O)=O,0.7643,0.0,1,G1
B-64,fructose,"InChI=1S/C6H12O6/c7-1-3(9)5(11)6(12)4(10)2-8/h3,5-9,11-12H,1-2H2/t3-,5-,6-/m1/s1",BJHIKXHVCXFQLS-UYFOZJQFSA-N,OC[C@@H](O)[C@@H](O)[C@H](O)C(=O)CO,0.6353,0.0,1,G1
B-72,cholesterol,"InChI=1S/C27H46O/c1-18(2)7-6-8-19(3)23-11-12-24-22-10-9-20-17-21(28)13-15-26(20,4)25(22)14-16-27(23,24)5/h9,18-19,21-25,28H,6-8,10-17H2,1-5H3/t19-,21+,22+,23-,24+,25+,26+,27-/m1/s1",HVYWMOMLDIMFJA-DPAQBDIFSA-N,CC(C)CCC[C@@H](C)[C@H]1CC[C@H]2[C@@H]3CC=C4C[C@@H](O)CC[C@]4(C)[C@H]3CC[C@]12C,-6.6096,0.0,1,G1
B-73,a-estradiol,"InChI=1S/C18H24O2/c1-18-9-8-14-13-5-3-12(19)10-11(13)2-4-15(14)16(18)6-7-17(18)20/h3,5,10,14-17,19-20H,2,4,6-9H2,1H3/t14-,15-,16+,17-,18+/m1/s1",VOXZDWNPVJITMN-SFFUCWETSA-N,C[C@]12CC[C@H]3[C@@H](CCc4cc(O)ccc34)[C@@H]1CC[C@H]2O,-4.8441,0.0,1,G1
B-74,librium,"InChI=1S/C16H14ClN3O/c1-18-15-10-20(21)16(11-5-3-2-4-6-11)13-9-12(17)7-8-14(13)19-15/h2-9,21H,10H2,1H3",BUCORZSTKDOEKQ-UHFFFAOYSA-N,CN=C1CN(O)C(=C2C=C(Cl)C=CC2=N1)c3ccccc3,-2.1757,0.0,1,G1
B-76,pyridoxine hydrochloride,"InChI=1S/C8H11NO3.ClH/c1-5-8(12)7(4-11)6(3-10)2-9-5;/h2,10-12H,3-4H2,1H3;1H",ZUFQODAHGAHPFQ-UHFFFAOYSA-N,[H+].[Cl-].Cc1ncc(CO)c(CO)c1O,0.0293,0.0,1,G1
B-83,thiamine,"InChI=1S/C12H17N4OS.ClH/c1-8-11(3-4-17)18-7-16(8)6-10-5-14-9(2)15-12(10)13;/h5,7,17H,3-4,6H2,1-2H3,(H2,13,14,15);1H/q+1;/p-1",MYVIATVLJGTBFV-UHFFFAOYSA-M,[Cl-].Cc1ncc(C[n+]2csc(CCO)c2C)c(N)n1,0.2207,0.0,1,G1
B-88,a-glucose-1-phosphate,"InChI=1S/C6H13O9P/c7-1-2-3(8)4(9)5(10)6(14-2)15-16(11,12)13/h2-10H,1H2,(H2,11,12,13)",HXXFSFRBOHSIMQ-UHFFFAOYSA-N,OCC1OC(O[P](O)(O)=O)C(O)C(O)C1O,0.5848,0.0,1,G1
B-91,ethylenediamine tetraacetic acid,"InChI=1S/C10H16N2O8/c13-7(14)3-11(4-8(15)16)1-2-12(5-9(17)18)6-10(19)20/h1-6H2,(H,13,14)(H,15,16)(H,17,18)(H,19,20)",KCXVZYZYPLLWCC-UHFFFAOYSA-N,OC(=O)CN(CCN(CC(O)=O)CC(O)=O)CC(O)=O,-2.4658,0.0,1,G1
B-92,p-phenylazoaniline,"InChI=1S/C12H11N3/c13-10-6-8-12(9-7-10)15-14-11-4-2-1-3-5-11/h1-9H,13H2",QPQKUYVSJWQSDY-UHFFFAOYSA-N,Nc1ccc(cc1)N=Nc2ccccc2,-3.7898,0.3044,2,G3
B-94,"ethanol, 2-mercapto-","InChI=1S/C2H6OS/c3-1-2-4/h3-4H,1-2H2",DGVVWUTYPXICAM-UHFFFAOYSA-N,OCCS,1.1072,0.0,1,G1
B-98,tetracycline,"InChI=1S/C22H24N2O8/c1-21(31)8-5-4-6-11(25)12(8)16(26)13-9(21)7-10-15(24(2)3)17(27)14(20(23)30)19(29)22(10,32)18(13)28/h4-6,9-10,15,25-26,30-32H,7,23H2,1-3H3/b20-14-/t9-,10-,15-,21+,22-/m0/s1",JYHCQVWYCGHXGP-BPPSBWQWSA-N,CN(C)[C@H]1[C@@H]2C[C@H]3C(=C(O)c4c(O)cccc4[C@@]3(C)O)C(=O)[C@]2(O)C(=O)\C(=C(N)/O)C1=O,-3.284,0.0,1,G1
B-100,methotrimeprazine,"InChI=1S/C19H24N2OS/c1-14(12-20(2)3)13-21-16-7-5-6-8-18(16)23-19-10-9-15(22-4)11-17(19)21/h5-11,14H,12-13H2,1-4H3/t14-/m1/s1",VRQVVMDWGGWHTJ-CQSZACIVSA-N,COc1ccc2Sc3ccccc3N(C[C@H](C)CN(C)C)c2c1,-4.2155,0.0,1,G1
B-101,5'-adenylic acid,"InChI=1S/C10H14N5O7P/c11-8-5-9(13-2-12-8)15(3-14-5)10-7(17)6(16)4(22-10)1-21-23(18,19)20/h2-4,6-7,10,16-17H,1H2,(H2,11,12,13)(H2,18,19,20)",UDMBCSSLTHHNCD-UHFFFAOYSA-N,Nc1ncnc2n(cnc12)C3OC(CO[P](O)(O)=O)C(O)C3O,-1.5406,0.0,1,G1
B-102,mefenamic acid,"InChI=1S/C15H15NO2/c1-10-6-5-9-13(11(10)2)16-14-8-4-3-7-12(14)15(17)18/h3-9,16H,1-2H3,(H,17,18)",HYYBABOKPJLUIN-UHFFFAOYSA-N,Cc1cccc(Nc2ccccc2C(O)=O)c1C,-4.0815,1.3300010233914192,3,G4
B-103,methylene blue,"InChI=1S/C16H18N3S.ClH/c1-18(2)11-5-7-13-15(9-11)20-16-10-12(19(3)4)6-8-14(16)17-13;/h5-10H,1-4H3;1H/q+1;/p-1",CXKWCBBOMKCUKX-UHFFFAOYSA-M,[Cl-].CN(C)c1ccc2nc3ccc(cc3[s+]c2c1)N(C)C,-0.8655,0.0,1,G1
B-107,"alanine, 2-methyl-","InChI=1S/C4H9NO2/c1-4(2,5)3(6)7/h5H2,1-2H3,(H,6,7)",FUOOLUPWFVMBKG-UHFFFAOYSA-N,CC(C)(N)C(O)=O,0.2453,0.06265,2,G3
B-108,cevadine,"InChI=1S/C32H49NO9/c1-6-18(3)25(35)41-24-11-12-26(4)19-8-9-20-28(37)13-23(34)31(39)21(29(28,38)16-30(20,26)42-32(19,24)40)15-33-14-17(2)7-10-22(33)27(31,5)36/h6,17,19-24,34,36-40H,7-16H2,1-5H3/b18-6-/t17-,19-,20-,21-,22-,23-,24-,26-,27+,28+,29+,30+,31-,32-/m0/s1",DBUCFOVFALNEOO-HWBIYQLFSA-N,C/C=C(/C)C(=O)O[C@H]1CC[C@@]2(C)[C@@H]3CC[C@H]4[C@]5(O)C[C@H](O)[C@@]6(O)[C@@H](CN7C[C@@H](C)CC[C@H]7[C@@]6(C)O)[C@]5(O)C[C@]24O[C@]13O,-3.0163,0.0,1,G1
B-110,"fluoroacetic acid, sodium salt","InChI=1S/C2H3FO2.Na/c3-1-2(4)5;/h1H2,(H,4,5);/q;+1/p-1",JGFYQVQAXANWJU-UHFFFAOYSA-M,[Na+].[O-]C(=O)CF,1.0452,0.0,1,G1
B-114,n-methyl o-(3-isopropylphenyl)carbamate,"InChI=1S/C11H15NO2/c1-8(2)9-5-4-6-10(7-9)14-11(13)12-3/h4-8H,1-3H3,(H,12,13)",GYKXQTKSWLAUIT-UHFFFAOYSA-N,CNC(=O)Oc1cccc(c1)C(C)C,-3.3567,0.0,1,G1
B-115,"edta, sodium salt","InChI=1S/C10H16N2O8.4Na/c13-7(14)3-11(4-8(15)16)1-2-12(5-9(17)18)6-10(19)20;;;;/h1-6H2,(H,13,14)(H,15,16)(H,17,18)(H,19,20);;;;/q;4*+1/p-4",UEUXEKPTXMALOB-UHFFFAOYSA-J,[Na+].[Na+].[Na+].[Na+].[O-]C(=O)CN(CCN(CC([O-])=O)CC([O-])=O)CC([O-])=O,0.11900000000000001,0.0,1,G1
B-119,morphine sulfate,"InChI=1S/2C17H19NO3.H2O4S/c2*1-18-7-6-17-10-3-5-13(20)16(17)21-15-12(19)4-2-9(14(15)17)8-11(10)18;1-5(2,3)4/h2*2-5,10-11,13,16,19-20H,6-8H2,1H3;(H2,1,2,3,4)/t2*10-,11+,13-,16?,17-;/m11./s1",USAHOPJHPJHUNS-TXCKYYANSA-N,C[NH+]1CC[C@@]23C4Oc5c(O)ccc(C[C@H]1[C@H]2C=C[C@H]4O)c35.C[NH+]6CC[C@@]78C9Oc%10c(O)ccc(C[C@H]6[C@H]7C=C[C@H]9O)c8%10.[O-][S]([O-])(=O)=O,-1.0157,0.0,1,G1
B-121,colchicine,"InChI=1S/C22H25NO6/c1-12(24)23-16-8-6-13-10-19(27-3)21(28-4)22(29-5)20(13)14-7-9-18(26-2)17(25)11-15(14)16/h7,9-11,16H,6,8H2,1-5H3,(H,23,24)/t16-/m0/s1",IAKHMKGGTNLKSZ-INIZCTEOSA-N,COC1=CC=C2C(=CC1=O)[C@H](CCc3cc(OC)c(OC)c(OC)c23)NC(C)=O,-0.9482,0.0,1,G1
B-122,pyridoxal hydrochloride,"InChI=1S/C8H9NO3.ClH/c1-5-8(12)7(4-11)6(3-10)2-9-5;/h2,4,10,12H,3H2,1H3;1H",FCHXJFJNDJXENQ-UHFFFAOYSA-N,[H+].[Cl-].Cc1ncc(CO)c(C=O)c1O,0.3901,0.0,1,G1
B-123,"l-methionine, n-acetyl-","InChI=1S/C7H13NO3S/c1-5(9)8-6(7(10)11)3-4-12-2/h6H,3-4H2,1-2H3,(H,8,9)(H,10,11)",XUYPXLNMDZIRQH-UHFFFAOYSA-N,CSCCC(NC(C)=O)C(O)=O,0.2055,0.0,1,G1
B-124,"3,5-diiodotyrosine","InChI=1S/C9H9I2NO3/c10-5-1-4(2-6(11)8(5)13)3-7(12)9(14)15/h1-2,7,13H,3,12H2,(H,14,15)/t7-/m0/s1",NYPYHUZRZVSYKL-ZETCQYMHSA-N,N[C@@H](Cc1cc(I)c(O)c(I)c1)C(O)=O,-2.8583,0.007099999999999884,2,G3
B-126,pyridoxal,"InChI=1S/C8H9NO3/c1-5-8(12)7(4-11)6(3-10)2-9-5/h2,4,10,12H,3H2,1H3",RADKZDMFGJYCBB-UHFFFAOYSA-N,Cc1ncc(CO)c(C=O)c1O,0.4758,0.0,1,G1
B-128,nihydrazone,"InChI=1S/C7H7N3O4/c1-5(11)9-8-4-6-2-3-7(14-6)10(12)13/h2-4H,1H3,(H,9,11)/b8-4+",ACFHHZJOAUZSJU-XBXARRHUSA-N,CC(=O)N/N=C/c1oc(cc1)[N+]([O-])=O,-2.5958,0.0,1,G1
B-138,ampicillin,"InChI=1S/C16H19N3O4S/c1-16(2)11(15(22)23)19-13(21)10(14(19)24-16)18-12(20)9(17)8-6-4-3-5-7-8/h3-7,9-11,14H,17H2,1-2H3,(H,18,20)(H,22,23)/t9-,10-,11+,14-/m1/s1",AVKUERGKIZMTKX-NJBDSQKTSA-N,CC1(C)S[C@@H]2[C@H](NC(=O)[C@H](N)c3ccccc3)C(=O)N2[C@H]1C(O)=O,-1.5390000000000001,0.0,1,G1
B-140,maltose,"InChI=1S/C12H22O11/c13-1-3-5(15)6(16)9(19)12(22-3)23-10-4(2-14)21-11(20)8(18)7(10)17/h3-20H,1-2H2",GUBGYTABKSRVRQ-UHFFFAOYSA-N,OCC1OC(OC2C(O)C(O)C(O)OC2CO)C(O)C(O)C1O,0.3577,0.29885,2,G3
B-141,uric acid,"InChI=1S/C5H4N4O3/c10-3-1-2(7-4(11)6-1)8-5(12)9-3/h(H4,6,7,8,9,10,11,12)",LEHOTFFKMJEONL-UHFFFAOYSA-N,O=C1NC(=O)C2=C(N1)NC(=O)N2,-3.4526,0.2384154916666841,3,G5
B-145,deferoxamine,"InChI=1S/C25H48N6O8/c1-21(32)29(37)18-9-3-6-16-27-22(33)12-14-25(36)31(39)20-10-4-7-17-28-23(34)11-13-24(35)30(38)19-8-2-5-15-26/h37-39H,2-20,26H2,1H3,(H,27,33)(H,28,34)",UBQYURCVBFRUQT-UHFFFAOYSA-N,CC(=O)N(O)CCCCCNC(=O)CCC(=O)N(O)CCCCCNC(=O)CCC(=O)N(O)CCCCCN,-1.6695,0.0,1,G1
B-150,sodium lactate,"InChI=1S/C3H6O3.Na/c1-2(4)3(5)6;/h2,4H,1H3,(H,5,6);/q;+1/p-1",NGSFWBMYFKHRBD-UHFFFAOYSA-M,[Na+].CC(O)C([O-])=O,0.9505,0.0,1,G1
B-157,adenine,"InChI=1S/C5H5N5/c6-4-3-5(9-1-7-3)10-2-8-4/h1-2H,(H3,6,7,8,9,10)",GFFGJBXGBJISGV-UHFFFAOYSA-N,Nc1ncnc2nc[nH]c12,-2.1179,0.07104999999999984,2,G3
B-158,iso-leucine,"InChI=1S/C6H13NO2/c1-3-4(2)5(7)6(8)9/h4-5H,3,7H2,1-2H3,(H,8,9)/t4-,5-/m0/s1",AGPKZVBTJJNPAG-WHFBIAKZSA-N,CC[C@H](C)[C@H](N)C(O)=O,-0.5813,0.0,1,G1
B-161,arginine,"InChI=1S/C6H14N4O2/c7-4(5(11)12)2-1-3-10-6(8)9/h4H,1-3,7H2,(H,11,12)(H4,8,9,10)",ODKSFYDXXFIFQN-UHFFFAOYSA-N,NC(CCCN=C(N)N)C(O)=O,0.019,0.0095,2,G3
B-163,ethane,InChI=1S/C2H6/c1-2/h1-2H3,OTMSDBZUPAUEDD-UHFFFAOYSA-N,CC,-2.6985,0.6385290822577221,3,G4
B-165,acetylene,InChI=1S/C2H2/c1-2/h1-2H,HSFWRNGVRCDJHI-UHFFFAOYSA-N,C#C,-1.3364,0.8132,2,G2
B-169,propyne,"InChI=1S/C3H4/c1-3-2/h1H,2H3",MWWATHDPGQKSAR-UHFFFAOYSA-N,CC#C,-1.0417,0.3158500000000001,2,G3
B-174,formamide oxime,"InChI=1S/CH3NO/c1-2-3/h3H,1H2",SQDFHQJTAWCFIB-UHFFFAOYSA-N,ON=C,0.5768,0.0,1,G1
B-175,dimethylsulfide,InChI=1S/C2H6S/c1-3-2/h1-2H3,QMMFVYPAHWMCMS-UHFFFAOYSA-N,CSC,-0.4503,0.27185000000000004,2,G3
B-183,2-methylaziridine,"InChI=1S/C3H7N/c1-3-2-4-3/h3-4H,2H2,1H3",OZDGMOYKSFPLSE-UHFFFAOYSA-N,CC1CN1,1.2434,0.0,1,G1
B-184,cacodylic acid,"InChI=1S/C2H7AsO2/c1-3(2,4)5/h1-2H3,(H,4,5)",OGGXGZAMXPVRFZ-UHFFFAOYSA-N,C[As](C)(O)=O,1.1612,0.0,1,G1
B-187,"1-chloro-1,1-difluoroethane","InChI=1S/C2H3ClF2/c1-2(3,4)5/h1H3",BHNZEZWIUMJCGF-UHFFFAOYSA-N,CC(F)(F)Cl,-1.8559999999999999,0.0,1,G1
B-188,tetrafluoromethane,"InChI=1S/CF4/c2-1(3,4)5",TXEYQDLBPFQVAA-UHFFFAOYSA-N,FC(F)(F)F,-3.6703,0.0,1,G1
B-189,methanesulfonic acid,"InChI=1S/CH4O3S/c1-5(2,3)4/h1H3,(H,2,3,4)",AFVFQIVMOAPDHO-UHFFFAOYSA-N,C[S](O)(=O)=O,1.0173,0.0,1,G1
B-190,acetone cyanohydrin,"InChI=1S/C4H7NO/c1-4(2,6)3-5/h6H,1-2H3",MWFMGBPGAXYFAR-UHFFFAOYSA-N,CC(C)(O)C#N,1.07,0.0,1,G1
B-191,"1,1,1-trifluoro-2-chloroethane","InChI=1S/C2H2ClF3/c3-1-2(4,5)6/h1H2",CYXIKYKBLDZZNW-UHFFFAOYSA-N,FC(F)(F)CCl,-1.1098,0.0,1,G1
B-193,"acetic acid, tribromo-","InChI=1S/C2HBr3O2/c3-2(4,5)1(6)7/h(H,6,7)/p-1",QIONYIKHPASLHO-UHFFFAOYSA-M,[O-]C(=O)C(Br)(Br)Br,-0.1713,0.0,1,G1
B-199,"acetic acid, chlorodifluoro-","InChI=1S/C2HClF2O2/c3-2(4,5)1(6)7/h(H,6,7)",OAWAZQITIZDJRB-UHFFFAOYSA-N,OC(=O)C(F)(F)Cl,0.8845,0.0,1,G1
B-200,trifluoroacetic acid,"InChI=1S/C2HF3O2/c3-2(4,5)1(6)7/h(H,6,7)",DTQVDTLACAAQTR-UHFFFAOYSA-N,OC(=O)C(F)(F)F,0.943,0.0,1,G1
B-202,"1,1,2,2,-tetrachlorodifluoroethane","InChI=1S/C2Cl4F2/c3-1(4,7)2(5,6)8",UGCSPKPEHQEOSR-UHFFFAOYSA-N,FC(Cl)(Cl)C(F)(Cl)Cl,-3.2301,0.02055000000000029,2,G3
B-204,hexafluoroethane,"InChI=1S/C2F6/c3-1(4,5)2(6,7)8",WMIYKQLTONQJES-UHFFFAOYSA-N,FC(F)(F)C(F)(F)F,-4.2489,0.0,1,G1
B-205,camphor,"InChI=1S/C10H16O/c1-9(2)7-4-5-10(9,3)8(11)6-7/h7H,4-6H2,1-3H3",DSSYKIVIOFKYAU-UHFFFAOYSA-N,CC1(C)C2CCC1(C)C(=O)C2,-1.9784,0.06723399140315856,5,G5
B-208,2-methyl-2-nitro-1-propanol,"InChI=1S/C4H9NO3/c1-4(2,3-6)5(7)8/h6H,3H2,1-2H3",MVGJRISPEUZYAQ-UHFFFAOYSA-N,CC(C)(CO)[N+]([O-])=O,1.4681,0.0,1,G1
B-209,"2,2,3-trichloro-1,1-butanediol","InChI=1S/C4H7Cl3O2/c1-2(5)4(6,7)3(8)9/h2-3,8-9H,1H3",QVYLNOUOIXTUGA-UHFFFAOYSA-N,CC(Cl)C(Cl)(Cl)C(O)O,-0.8666,0.0,1,G1
B-211,codeine,"InChI=1S/C18H21NO3/c1-19-8-7-18-11-4-5-13(20)17(18)22-16-14(21-2)6-3-10(15(16)18)9-12(11)19/h3-6,11-13,17,20H,7-9H2,1-2H3/t11-,12+,13-,17-,18-/m0/s1",OROGSEYTTFOCAN-DNJOTXNNSA-N,COc1ccc2C[C@@H]3[C@@H]4C=C[C@H](O)[C@@H]5Oc1c2[C@]45CCN3C,-1.5219999999999998,0.0,1,G1
B-212,dionine,"InChI=1S/C19H23NO3/c1-3-22-15-7-4-11-10-13-12-5-6-14(21)18-19(12,8-9-20(13)2)16(11)17(15)23-18/h4-7,12-14,18,21H,3,8-10H2,1-2H3/t12-,13+,14-,18-,19-/m0/s1",OGDVEMNWJVYAJL-LEPYJNQMSA-N,CCOc1ccc2C[C@@H]3[C@@H]4C=C[C@H](O)[C@@H]5Oc1c2[C@]45CCN3C,-2.079,0.0,1,G1
B-213,"benzenemethanol, 4-amino-.alpha.,.alpha.-bis(4-a","InChI=1S/C20H21N3O/c1-13-12-16(6-11-19(13)23)20(24,14-2-7-17(21)8-3-14)15-4-9-18(22)10-5-15/h2-12,24H,21-23H2,1H3",OYHZNLZYIRSDHN-UHFFFAOYSA-N,Cc1cc(ccc1N)C(O)(c2ccc(N)cc2)c3ccc(N)cc3,-3.0272,0.0,1,G1
B-215,"barbituric acid,5-me-5-phenyl-","InChI=1S/C11H10N2O3/c1-11(7-5-3-2-4-6-7)8(14)12-10(16)13-9(11)15/h2-6H,1H3,(H2,12,13,14,15,16)",LSAOZCAKUIANSQ-UHFFFAOYSA-N,CC1(C(=O)NC(=O)NC1=O)c2ccccc2,-2.4581,0.03905000000000003,2,G3
B-219,"2-methyl-2-nitropropane-1,3-diol","InChI=1S/C4H9NO4/c1-4(2-6,3-7)5(8)9/h6-7H,2-3H2,1H3",LOTYADDQWWVBDJ-UHFFFAOYSA-N,CC(CO)(CO)[N+]([O-])=O,0.7724,0.0,1,G1
B-222,tabun,"InChI=1S/C5H11N2O2P/c1-4-9-10(8,5-6)7(2)3/h4H2,1-3H3",PJVJTCIRVMBVIA-UHFFFAOYSA-N,CCO[P](=O)(C#N)N(C)C,-0.2186,0.0,1,G1
B-224,acetyl tributyl citrate,"InChI=1S/C20H34O8/c1-5-8-11-25-17(22)14-20(28-16(4)21,19(24)27-13-10-7-3)15-18(23)26-12-9-6-2/h5-15H2,1-4H3",QZCLKYGREBVARF-UHFFFAOYSA-N,CCCCOC(=O)CC(CC(=O)OCCCC)(OC(C)=O)C(=O)OCCCC,-4.9058,0.0,1,G1
B-226,triethyl citrate,"InChI=1S/C12H20O7/c1-4-17-9(13)7-12(16,11(15)19-6-3)8-10(14)18-5-2/h16H,4-8H2,1-3H3",DOOTYTYQINUNNV-UHFFFAOYSA-N,CCOC(=O)CC(O)(CC(=O)OCC)C(=O)OCC,-0.6285,0.012749999999999984,2,G3
B-228,pentaerythritol tetranitrate,"InChI=1S/C5H8N4O12/c10-6(11)18-1-5(2-19-7(12)13,3-20-8(14)15)4-21-9(16)17/h1-4H2",TZRXHJWUDPFEEY-UHFFFAOYSA-N,[O-][N+](=O)OCC(CO[N+]([O-])=O)(CO[N+]([O-])=O)CO[N+]([O-])=O,-3.8664,0.0,1,G1
B-232,dibutyl butylphosphonate,"InChI=1S/C12H27O3P/c1-4-7-10-14-16(13,12-9-6-3)15-11-8-5-2/h4-12H2,1-3H3",JPGXOMADPRULAC-UHFFFAOYSA-N,CCCCO[P](=O)(CCCC)OCCCC,-2.6995,0.0,1,G1
B-233,tri-2-butoxyethyl phosphate,"InChI=1S/C18H39O7P/c1-4-7-10-20-13-16-23-26(19,24-17-14-21-11-8-5-2)25-18-15-22-12-9-6-3/h4-18H2,1-3H3",WTLBZVNBAKMVDP-UHFFFAOYSA-N,CCCCOCCO[P](=O)(OCCOCCCC)OCCOCCCC,-2.559,0.0,1,G1
B-236,"2,2'-azobis(2-methylpropionitrile)","InChI=1S/C8H12N4/c1-7(2,5-9)11-12-8(3,4)6-10/h1-4H3",OZAIFHULBGXAKX-UHFFFAOYSA-N,CC(C)(N=NC(C)(C)C#N)C#N,-2.6713,0.0,1,G1
B-238,"ethane, 1,1,2-tribromo-","InChI=1S/C2H3Br3/c3-1-2(4)5/h2H,1H2",QUMDOMSJJIFTCA-UHFFFAOYSA-N,BrCC(Br)Br,-2.7272,0.0,1,G1
B-248,chloroacetone,"InChI=1S/C3H5ClO/c1-3(5)2-4/h2H2,1H3",BULLHNJGPPOUOX-UHFFFAOYSA-N,CC(=O)CCl,-0.012,0.0,1,G1
B-249,1-amino-2-propanol,"InChI=1S/C3H9NO/c1-3(5)2-4/h3,5H,2,4H2,1H3",HXKKHQJGJAFBHI-UHFFFAOYSA-N,CC(O)CN,1.1243,0.0,1,G1
B-250,"1,1-dichloropropane","InChI=1S/C3H6Cl2/c1-2-3(4)5/h3H,2H2,1H3",WIHMGGWNMISDNJ-UHFFFAOYSA-N,CCC(Cl)Cl,-1.6217,0.0,1,G1