ID,Name,InChI,InChIKey,SMILES,Solubility,SD,Occurrences,Group
C-133,"5,5-(spirocyclohexyl)barbituric  acid;  spiro-5,5-pentamethylenebarbituric acid","InChI=1S/C9H12N2O3/c12-6-9(4-2-1-3-5-9)7(13)11-8(14)10-6/h1-5H2,(H2,10,11,12,13,14)",NBLIVIWUPTWDMD-UHFFFAOYSA-N,O=C1NC(=O)C2(CCCCC2)C(=O)N1,-3.06,0.0,1,G1
C-134,ephedrine,"InChI=1S/C10H15NO/c1-8(11-2)10(12)9-6-4-3-5-7-9/h3-8,10-12H,1-2H3",KWGRBVOPPLSCSI-UHFFFAOYSA-N,CNC(C)C(O)C1=CC=CC=C1,-0.47,0.024999999999999994,2,G3
C-137,4-methylbenzoic acid,"InChI=1S/C8H8O2/c1-6-2-4-7(5-3-6)8(9)10/h2-5H,1H3,(H,9,10)",LPNBBFKOUUSUDB-UHFFFAOYSA-N,CC1=CC=C(C=C1)C(O)=O,-2.53,0.03500000000000014,2,G3
C-139,"5,5-diethyl-2-thiobarbituric  acid; thiobarbital","InChI=1S/C8H12N2O2S/c1-3-8(4-2)5(11)9-7(13)10-6(8)12/h3-4H2,1-2H3,(H2,9,10,11,12,13)",QGVNJRROSLYGKF-UHFFFAOYSA-N,CCC1(CC)C(=O)NC(=S)NC1=O,-2.28,0.0,1,G1
C-144,5-methyl-5-(3-methyl-2-butenyl)barbituric  acid,"InChI=1S/C10H14N2O3/c1-6(2)4-5-10(3)7(13)11-9(15)12-8(10)14/h4H,5H2,1-3H3,(H2,11,12,13,14,15)",CVWHRDJDXCEZGH-UHFFFAOYSA-N,CC(C)=CCC1(C)C(=O)NC(=O)NC1=O,-2.6,0.0,1,G1
C-146,methidathion,"InChI=1S/C6H11N2O4PS3/c1-10-5-7-8(6(9)16-5)4-15-13(14,11-2)12-3/h4H2,1-3H3",MEBQXILRKZHVCX-UHFFFAOYSA-N,COC1=NN(CS[P](=S)(OC)OC)C(=O)S1,-3.1,0.05449999999999977,2,G3
C-148,4-fluorobenzoic acid,"InChI=1S/C7H5FO2/c8-6-3-1-5(2-4-6)7(9)10/h1-4H,(H,9,10)",BBYDXOIZLAWGSL-UHFFFAOYSA-N,OC(=O)C1=CC=C(F)C=C1,-2.07,0.0,1,G1
C-149,3-bromophenol,"InChI=1S/C6H5BrO/c7-5-2-1-3-6(8)4-5/h1-4,8H",MNOJRWOWILAHAV-UHFFFAOYSA-N,OC1=CC(=CC=C1)Br,-0.88,0.0,1,G1
C-150,isoniazid;  isonicotinic acid hydrazide;  inh,"InChI=1S/C6H7N3O/c7-9-6(10)5-1-3-8-4-2-5/h1-4H,7H2,(H,9,10)",QRXWMOHMRWLFEY-UHFFFAOYSA-N,NNC(=O)C1=CC=NC=C1,-0.04,0.025,2,G3
C-151,butabarbital;  5-sec-butyl-5-ethylbarbituric acid,"InChI=1S/C10H16N2O3/c1-4-6(3)10(5-2)7(13)11-9(15)12-8(10)14/h6H,4-5H2,1-3H3,(H2,11,12,13,14,15)",ZRIHAIZYIMGOAB-UHFFFAOYSA-N,CCC(C)C1(CC)C(=O)NC(=O)NC1=O,-2.39,0.0,1,G1
C-152,2-fluorobenzoic  acid,"InChI=1S/C7H5FO2/c8-6-4-2-1-3-5(6)7(9)10/h1-4H,(H,9,10)",NSTREUWFTAOOKS-UHFFFAOYSA-N,OC(=O)C1=C(F)C=CC=C1,-1.39,0.05049999999999988,2,G3
C-154,"5,5-diisopropylbarbituric acid","InChI=1S/C10H16N2O3/c1-5(2)10(6(3)4)7(13)11-9(15)12-8(10)14/h5-6H,1-4H3,(H2,11,12,13,14,15)",NSQYIEOSFPLTJA-UHFFFAOYSA-N,CC(C)C1(C(C)C)C(=O)NC(=O)NC1=O,-2.77,0.0,1,G1
C-159,4-tolyl  isothiocyanate;  1-isothiocyanato-4-methylbenzene;  4-isothiocyanatotoluene,"InChI=1S/C8H7NS/c1-7-2-4-8(5-3-7)9-6-10/h2-5H,1H3",ABQKHKWXTUVKGF-UHFFFAOYSA-N,CC1=CC=C(C=C1)N=C=S,-4.72,0.0,1,G1
C-161,3-hydroxybenzoic acid,"InChI=1S/C7H6O3/c8-6-3-1-2-5(4-6)7(9)10/h1-4,8H,(H,9,10)",IJFXRHURBJZNAO-UHFFFAOYSA-N,OC(=O)C1=CC(=CC=C1)O,-1.24,0.020000000000000018,2,G3
C-162,"2,5-dichlorophenol","InChI=1S/C6H4Cl2O/c7-4-1-2-5(8)6(9)3-4/h1-3,9H",RANCECPPZPIPNO-UHFFFAOYSA-N,OC1=C(Cl)C=CC(=C1)Cl,-1.91,0.0,1,G1
C-163,5-ethyl-5-pentylbarbituric acid;  5-amyl-5-ethylbarbituric  acid,"InChI=1S/C11H18N2O3/c1-3-5-6-7-11(4-2)8(14)12-10(16)13-9(11)15/h3-7H2,1-2H3,(H2,12,13,14,15,16)",XYGXSCVUMIDZRR-UHFFFAOYSA-N,CCCCCC1(CC)C(=O)NC(=O)NC1=O,-2.51,0.16699999999999982,2,G3
C-167,salicylic  acid,"InChI=1S/C7H6O3/c8-6-4-2-1-3-5(6)7(9)10/h1-4,8H,(H,9,10)",YGSDEFSMJLZEOE-UHFFFAOYSA-N,OC(=O)C1=C(O)C=CC=C1,-1.8,0.012472191289246483,3,G5
C-169,cymoxanil,"InChI=1S/C7H10N4O3/c1-3-9-7(13)10-6(12)5(4-8)11-14-2/h3H2,1-2H3,(H2,9,10,12,13)/b11-5+",XERJKGMBORTKEO-VZUCSPMQSA-N,CCNC(=O)NC(=O)C(=N/OC)/C#N,-2.3,0.02385000000000015,2,G3
C-170,4-nitrophenol,"InChI=1S/C6H5NO3/c8-6-3-1-5(2-4-6)7(9)10/h1-4,8H",BTJIUGUIPKRLHP-UHFFFAOYSA-N,OC1=CC=C(C=C1)[N+]([O-])=O,-0.94,0.13914101560008185,3,G5
C-173,hexamethylbenzene,InChI=1S/C12H18/c1-7-8(2)10(4)12(6)11(5)9(7)3/h1-6H3,YUWFEBAXEOLKSG-UHFFFAOYSA-N,CC1=C(C)C(=C(C)C(=C1C)C)C,-5.23,0.30449999999999955,2,G3
C-175,3-nitrophenol,"InChI=1S/C6H5NO3/c8-6-3-1-2-5(4-6)7(9)10/h1-4,8H",RTZZCYNQPHTPPL-UHFFFAOYSA-N,OC1=CC(=CC=C1)[N+]([O-])=O,-1.07,0.030000000000000027,2,G3
C-177,pentyl 4-(3-cyclohexylureido)butanoate;  4-(3-cyclohexylureido)butanoic acid pentyl ester,"InChI=1S/C16H30N2O3/c1-2-3-7-13-21-15(19)11-8-12-17-16(20)18-14-9-5-4-6-10-14/h14H,2-13H2,1H3,(H2,17,18,20)",RQHYVHQLEWVZJX-UHFFFAOYSA-N,CCCCCOC(=O)CCCNC(=O)NC1CCCCC1,-2.3,0.0,1,G1
C-178,5-ethyl-5-(3-methyl-2-butenyl)barbituric  acid,"InChI=1S/C11H16N2O3/c1-4-11(6-5-7(2)3)8(14)12-10(16)13-9(11)15/h5H,4,6H2,1-3H3,(H2,12,13,14,15,16)",VDVCBHJNKZNXKT-UHFFFAOYSA-N,CCC1(CC=C(C)C)C(=O)NC(=O)NC1=O,-2.25,0.0,1,G1
C-179,prostaglandin f2alpha;  dinoprost,"InChI=1S/C20H34O5/c1-2-3-6-9-15(21)12-13-17-16(18(22)14-19(17)23)10-7-4-5-8-11-20(24)25/h4,7,12-13,15-19,21-23H,2-3,5-6,8-11,14H2,1H3,(H,24,25)/b7-4+,13-12+",PXGPLTODNUVGFL-RTYMFESYSA-N,CCCCCC(O)/C=C/C1C(O)CC(O)C1C\C=C\CCCC(O)=O,-2.33,0.0,1,G1
C-183,"5,5-(spirocyclohexyl)thiobarbituric  acid;  5,5-spiropentamethylene-2-thiobarbituric acid","InChI=1S/C9H12N2O2S/c12-6-9(4-2-1-3-5-9)7(13)11-8(14)10-6/h1-5H2,(H2,10,11,12,13,14)",XIOUPQUYEUYPAW-UHFFFAOYSA-N,O=C1NC(=S)NC(=O)C12CCCCC2,-3.46,0.0,1,G1
C-187,butalbital; 5-allyl-5-isobutylbarbituric  acid,"InChI=1S/C11H16N2O3/c1-4-5-11(6-7(2)3)8(14)12-10(16)13-9(11)15/h4,7H,1,5-6H2,2-3H3,(H2,12,13,14,15,16)",UZVHFVZFNXBMQJ-UHFFFAOYSA-N,CC(C)CC1(CC=C)C(=O)NC(=O)NC1=O,-2.12,0.0,1,G1
C-188,hexethal;  5-ethyl-5-hexylbarbituric acid,"InChI=1S/C12H20N2O3/c1-3-5-6-7-8-12(4-2)9(15)13-11(17)14-10(12)16/h3-8H2,1-2H3,(H2,13,14,15,16,17)",PSTVHRSUNBSVIJ-UHFFFAOYSA-N,CCCCCCC1(CC)C(=O)NC(=O)NC1=O,-3.05,0.0,1,G1
C-190,"1,2,3-trichlorobenzene",InChI=1S/C6H3Cl3/c7-4-2-1-3-5(8)6(4)9/h1-3H,RELMFMZEBKVZJC-UHFFFAOYSA-N,ClC1=C(Cl)C(=CC=C1)Cl,-4.04,0.041096093353126355,3,G5
C-191,"spiro-5,5-cyclooctylbarbituric  acid;  spiro-5,5-heptamethylenebarbituric acid","InChI=1S/C11H16N2O3/c14-8-11(9(15)13-10(16)12-8)6-4-2-1-3-5-7-11/h1-7H2,(H2,12,13,14,15,16)",RQNKKIXVVHCBKY-UHFFFAOYSA-N,O=C1NC(=O)C2(CCCCCCC2)C(=O)N1,-2.98,0.0,1,G1
C-192,1-adamantan-1'-yl-3-decylurea,"InChI=1S/C21H38N2O/c1-2-3-4-5-6-7-8-9-10-22-20(24)23-21-14-17-11-18(15-21)13-19(12-17)16-21/h17-19H,2-16H2,1H3,(H2,22,23,24)",KDYRDODPBAFNHJ-UHFFFAOYSA-N,CCCCCCCCCCNC(=O)N[C]12C[CH]3[CH2]C([CH2][CH](C3)C1)C2,-5.83,0.0,1,G1
C-194,vinbarbital;  5-ethyl-5-(1-methyl-1-butenyl)barbituric  acid,"InChI=1S/C11H16N2O3/c1-4-6-7(3)11(5-2)8(14)12-10(16)13-9(11)15/h6H,4-5H2,1-3H3,(H2,12,13,14,15,16)/b7-6+",RAFOHKSPUDGZPR-VOTSOKGWSA-N,CC/C=C(C)/C1(CC)C(=O)NC(=O)NC1=O,-2.31,0.0,1,G1
C-196,indole,"InChI=1S/C8H7N/c1-2-4-8-7(3-1)5-6-9-8/h1-6,9H",SIKJAQJRHWYJAI-UHFFFAOYSA-N,[NH]1C=CC2=C1C=CC=C2,-1.21,0.15349999999999997,2,G3
C-197,talbutal;  5-allyl-5-sec-butylbarbituric  acid,"InChI=1S/C11H16N2O3/c1-4-6-11(7(3)5-2)8(14)12-10(16)13-9(11)15/h4,7H,1,5-6H2,2-3H3,(H2,12,13,14,15,16)",BJVVMKUXKQHWJK-UHFFFAOYSA-N,CCC(C)C1(CC=C)C(=O)NC(=O)NC1=O,-2.02,0.0,1,G1
C-201,stanolone;   androstanolone;  dihydrotestosterone,"InChI=1S/C19H30O2/c1-18-9-7-13(20)11-12(18)3-4-14-15-5-6-17(21)19(15,2)10-8-16(14)18/h12,14-17,21H,3-11H2,1-2H3",NVKAWKQGWWIWPM-UHFFFAOYSA-N,CC12CCC3C(CCC4CC(=O)CCC34C)C1CCC2O,-4.74,0.0,1,G1
C-205,oxamyl;  vydate,"InChI=1S/C7H13N3O3S/c1-8-7(12)13-9-5(14-4)6(11)10(2)3/h1-4H3,(H,8,12)/b9-5-",KZAUOCCYDRDERY-UITAMQMPSA-N,CNC(=O)O/N=C(SC)/C(=O)N(C)C,0.11,0.0,1,G1
C-206,3-acetylaminophenol;  3-hydroxyacetanilide,"InChI=1S/C8H9NO2/c1-6(10)9-7-3-2-4-8(11)5-7/h2-5,11H,1H3,(H,9,10)",QLNWXBAGRTUKKI-UHFFFAOYSA-N,CC(=O)NC1=CC=CC(=C1)O,-1.06,0.0,1,G1
C-207,5-ethyl-5-heptylbarbituric  acid,"InChI=1S/C13H22N2O3/c1-3-5-6-7-8-9-13(4-2)10(16)14-12(18)15-11(13)17/h3-9H2,1-2H3,(H2,14,15,16,17,18)",FLJQERBDKWFELA-UHFFFAOYSA-N,CCCCCCCC1(CC)C(=O)NC(=O)NC1=O,-3.43,0.0,1,G1
C-209,3-anisic  acid;  3-methoxybenzoic  acid,"InChI=1S/C8H8O3/c1-11-7-4-2-3-6(5-7)8(9)10/h2-5H,1H3,(H,9,10)",XHQZJYCNDZAGLW-UHFFFAOYSA-N,COC1=CC(=CC=C1)C(O)=O,-1.93,0.0,1,G1
C-211,methyl cinnamate;  cinnamic acid methyl ester,"InChI=1S/C10H10O2/c1-12-10(11)8-7-9-5-3-2-4-6-9/h2-8H,1H3/b8-7+",CCRCUPLGCSFEDV-BQYQJAHWSA-N,COC(=O)/C=C/C1=CC=CC=C1,-2.67,0.0,1,G1
C-212,2-acetylaminophenol;  2-hydroxyacetanilide,"InChI=1S/C8H9NO2/c1-6(10)9-7-4-2-3-5-8(7)11/h2-5,11H,1H3,(H,9,10)",ADVGKWPZRIDURE-UHFFFAOYSA-N,CC(=O)NC1=C(O)C=CC=C1,-2.13,0.8204837881802826,3,G4
C-213,"2,3-dichloroanisole;  1-methoxy-2,3-dichlorobenzene","InChI=1S/C7H6Cl2O/c1-10-6-4-2-3-5(8)7(6)9/h2-4H,1H3",HFEASCCDHUVYKU-UHFFFAOYSA-N,COC1=C(Cl)C(=CC=C1)Cl,-3.31,0.0,1,G1
C-216,vanillin;  4-hydroxy-3-methoxybenzaldehyde,"InChI=1S/C8H8O3/c1-11-8-4-6(5-9)2-3-7(8)10/h2-5,10H,1H3",MWOOGOJBHIARFG-UHFFFAOYSA-N,COC1=CC(=CC=C1O)C=O,-1.14,0.0,1,G1
C-217,2-anisic  acid;  2-methoxybenzoic  acid,"InChI=1S/C8H8O3/c1-11-7-5-3-2-4-6(7)8(9)10/h2-5H,1H3,(H,9,10)",ILUJQPXNXACGAN-UHFFFAOYSA-N,COC1=CC=CC=C1C(O)=O,-1.6,0.058499999999999996,2,G3
C-218,5-isopropyl-5-(3-methyl-2-butenyl)barbituric  acid,"InChI=1S/C12H18N2O3/c1-7(2)5-6-12(8(3)4)9(15)13-11(17)14-10(12)16/h5,8H,6H2,1-4H3,(H2,13,14,15,16,17)",ZCDHRBAYNFWZBH-UHFFFAOYSA-N,CC(C)C1(CC=C(C)C)C(=O)NC(=O)NC1=O,-2.59,0.0,1,G1
C-219,benzotriazole,"InChI=1S/C6H5N3/c1-2-4-6-5(3-1)7-9-8-6/h1-4H,(H,7,8,9)",QRUDEWIWKLJBPS-UHFFFAOYSA-N,[NH]1N=NC2=C1C=CC=C2,-0.77,0.0050000000000000044,2,G3
C-220,4-methylsalicylic  acid;  2-hydroxy-4-methylbenzoic acid,"InChI=1S/C8H8O3/c1-5-2-3-6(8(10)11)7(9)4-5/h2-4,9H,1H3,(H,10,11)",NJESAXZANHETJV-UHFFFAOYSA-N,CC1=CC(=C(C=C1)C(O)=O)O,-2.9,0.0,1,G1
C-222,5-methylsalicylic  acid,"InChI=1S/C8H8O3/c1-5-2-3-7(9)6(4-5)8(10)11/h2-4,9H,1H3,(H,10,11)",DLGBEGBHXSAQOC-UHFFFAOYSA-N,CC1=CC(=C(O)C=C1)C(O)=O,-2.76,0.0,1,G1
C-223,3-chlorophenyl  isothiocyanate;  1-chloro-3-isothiocyanatobenzene,InChI=1S/C7H4ClNS/c8-6-2-1-3-7(4-6)9-5-10/h1-4H,WGXCKFMVBAOIFH-UHFFFAOYSA-N,ClC1=CC=CC(=C1)N=C=S,-3.95,0.0,1,G1
C-225,acephate;  orthene,"InChI=1S/C4H10NO3PS/c1-4(6)5-9(7,8-2)10-3/h1-3H3,(H,5,6,7)",YASYVMFAVPKPKE-UHFFFAOYSA-N,CO[P](=O)(NC(C)=O)SC,0.54,0.05499999999999999,2,G3
C-226,5-ethyl-5-octylbarbituric  acid,"InChI=1S/C14H24N2O3/c1-3-5-6-7-8-9-10-14(4-2)11(17)15-13(19)16-12(14)18/h3-10H2,1-2H3,(H2,15,16,17,18,19)",NTYYDJWPKCQQIB-UHFFFAOYSA-N,CCCCCCCCC1(CC)C(=O)NC(=O)NC1=O,-3.94,0.0,1,G1
C-227,4-nonylphenol,"InChI=1S/C15H24O/c1-2-3-4-5-6-7-8-9-14-10-12-15(16)13-11-14/h10-13,16H,2-9H2,1H3",IGFHQQFPSIBGKE-UHFFFAOYSA-N,CCCCCCCCCC1=CC=C(O)C=C1,-4.5,0.0,1,G1
C-228,aldicarb  sulfone,"InChI=1S/C7H14N2O4S/c1-7(2,14(4,11)12)5-9-13-6(10)8-3/h5H,1-4H3,(H,8,10)/b9-5+",YRRKLBAKDXSTNC-WEVVVXLNSA-N,CNC(=O)O\N=C\C(C)(C)[S](C)(=O)=O,-1.35,0.0,1,G1
C-229,3-nitrobenzaldehyde,InChI=1S/C7H5NO3/c9-5-6-2-1-3-7(4-6)8(10)11/h1-5H,ZETIVVHRRQLWFW-UHFFFAOYSA-N,[O-][N+](=O)C1=CC=CC(=C1)C=O,-1.98,0.006500000000000061,2,G3
C-231,thiopental;  5-ethyl-5-(2-pentyl)-2-thiobarbituric  acid,"InChI=1S/C11H18N2O2S/c1-4-6-7(3)11(5-2)8(14)12-10(16)13-9(11)15/h7H,4-6H2,1-3H3,(H2,12,13,14,15,16)",IUJDSEJGGMCXSG-UHFFFAOYSA-N,CCCC(C)C1(CC)C(=O)NC(=S)NC1=O,-3.6,0.1200000000000001,2,G3
C-235,2-nitrobenzaldehyde,InChI=1S/C7H5NO3/c9-5-6-3-1-2-4-7(6)8(10)11/h1-5H,CMWKITSNTDAEDT-UHFFFAOYSA-N,[O-][N+](=O)C1=C(C=O)C=CC=C1,-1.82,0.0,1,G1
C-236,5-ethylbarbituric acid,"InChI=1S/C6H8N2O3/c1-2-3-4(9)7-6(11)8-5(3)10/h3H,2H2,1H3,(H2,7,8,9,10,11)",FMTLDVACNZDTQL-UHFFFAOYSA-N,CCC1C(=O)NC(=O)NC1=O,-0.92,0.0,1,G1
C-238,4-aminosalicylic  acid;  pas,"InChI=1S/C7H7NO3/c8-4-1-2-5(7(10)11)6(9)3-4/h1-3,9H,8H2,(H,10,11)",WUBBRNOQWQTFEX-UHFFFAOYSA-N,NC1=CC(=C(C=C1)C(O)=O)O,-1.96,0.0,1,G1
C-239,5-aminosalicylic  acid;  mesalamine;  mesalazine,"InChI=1S/C7H7NO3/c8-4-1-2-6(9)5(3-4)7(10)11/h1-3,9H,8H2,(H,10,11)",KBOPZPXVLCULAV-UHFFFAOYSA-N,NC1=CC(=C(O)C=C1)C(O)=O,-2.26,0.0,1,G1
C-242,3-cyanophenyl  isothiocyanate; 3-isothiocyanatobenzonitrile,InChI=1S/C8H4N2S/c9-5-7-2-1-3-8(4-7)10-6-11/h1-4H,UXCYPHCFQAFVFH-UHFFFAOYSA-N,S=C=NC1=CC=CC(=C1)C#N,-3.19,0.0,1,G1
C-244,methyl  4-methoxybenzoate,"InChI=1S/C9H10O3/c1-11-8-5-3-7(4-6-8)9(10)12-2/h3-6H,1-2H3",DDIZAANNODHTRB-UHFFFAOYSA-N,COC(=O)C1=CC=C(OC)C=C1,-2.34,0.03500000000000014,2,G3
C-245,dl-phenylalanine,"InChI=1S/C9H11NO2/c10-8(9(11)12)6-7-4-2-1-3-5-7/h1-5,8H,6,10H2,(H,11,12)",COLNVLDHVKWLRT-UHFFFAOYSA-N,NC(CC1=CC=CC=C1)C(O)=O,-1.07,0.18272261916784022,3,G5
C-246,5-ethyl-5-nonylbarbituric acid,"InChI=1S/C15H26N2O3/c1-3-5-6-7-8-9-10-11-15(4-2)12(18)16-14(20)17-13(15)19/h3-11H2,1-2H3,(H2,16,17,18,19,20)",KMXPZGOJCXKDSG-UHFFFAOYSA-N,CCCCCCCCCC1(CC)C(=O)NC(=O)NC1=O,-4.46,0.0,1,G1
C-247,methyl 4-(3-adamantan-1-ylureido)butanoate; 4-(3-adamantan-1-ylureido)butanoic acid methyl ester,"InChI=1S/C16H26N2O3/c1-21-14(19)3-2-4-17-15(20)18-16-8-11-5-12(9-16)7-13(6-11)10-16/h11-13H,2-10H2,1H3,(H2,17,18,20)",ZHGXICWKWFWBKM-UHFFFAOYSA-N,COC(=O)CCCNC(=O)N[C]12C[CH]3[CH2]C([CH2][CH](C3)C1)C2,-2.25,0.0,1,G1
C-248,propham;  isopropyl  n-(phenyl)carbamate,"InChI=1S/C10H13NO2/c1-8(2)13-10(12)11-9-6-4-3-5-7-9/h3-8H,1-2H3,(H,11,12)",VXPLXMJHHKHSOA-UHFFFAOYSA-N,CC(C)OC(=O)NC1=CC=CC=C1,-3.0,0.0,1,G1
C-249,3-methylindole;  skatole,"InChI=1S/C9H9N/c1-7-6-10-9-5-3-2-4-8(7)9/h2-6,10H,1H3",ZFRKQXVRDFCRJG-UHFFFAOYSA-N,CC1=C[NH]C2=C1C=CC=C2,-2.42,0.0,1,G1
C-250,"epinephrine; 3,4-dihydroxy-alpha-[(methylamino)methyl]benzyl  alcohol; adrenaline","InChI=1S/C9H13NO3/c1-10-5-9(13)6-2-3-7(11)8(12)4-6/h2-4,9-13H,5H2,1H3",UCTWMZQNUQWSLP-UHFFFAOYSA-N,CNCC(O)C1=CC(=C(O)C=C1)O,-2.74,0.0,1,G1
C-251,"2,5-dihydroxybenzoic   acid;  gentisic  acid","InChI=1S/C7H6O4/c8-4-1-2-6(9)5(3-4)7(10)11/h1-3,8-9H,(H,10,11)",WXTMDXOMEHJXQO-UHFFFAOYSA-N,OC(=O)C1=CC(=CC=C1O)O,-0.85,0.31950000000000006,2,G3
C-252,3-ethoxy-4-hydroxybenzaldehyde,"InChI=1S/C9H10O3/c1-2-12-9-5-7(6-10)3-4-8(9)11/h3-6,11H,2H2,1H3",CBOQJANXLMLOSS-UHFFFAOYSA-N,CCOC1=C(O)C=CC(=C1)C=O,-1.77,0.0,1,G1
C-254,5-tert-butyl-5-(3-methylbut-2-enyl)barbituric  acid,"InChI=1S/C13H20N2O3/c1-8(2)6-7-13(12(3,4)5)9(16)14-11(18)15-10(13)17/h6H,7H2,1-5H3,(H2,14,15,16,17,18)",DRLSBGXFFUXZIN-UHFFFAOYSA-N,CC(C)=CCC1(C(=O)NC(=O)NC1=O)C(C)(C)C,-3.55,0.0,1,G1
C-256,4-acetamidobenzaldehyde; 4-acetylaminobenzaldehyde,"InChI=1S/C9H9NO2/c1-7(12)10-9-4-2-8(6-11)3-5-9/h2-6H,1H3,(H,10,12)",SKLUWKYNZNXSLX-UHFFFAOYSA-N,CC(=O)NC1=CC=C(C=O)C=C1,-1.63,0.02499999999999991,2,G3
C-257,"3,4-dimethoxybenzaldehyde","InChI=1S/C9H10O3/c1-11-8-4-3-7(6-10)5-9(8)12-2/h3-6H,1-2H3",WJUFSDZVCOTFON-UHFFFAOYSA-N,COC1=C(OC)C=C(C=O)C=C1,-1.42,0.0,1,G1
C-258,"2,5-dimethoxybenzaldehyde","InChI=1S/C9H10O3/c1-11-8-3-4-9(12-2)7(5-8)6-10/h3-6H,1-2H3",AFUKNJHPZAVHGQ-UHFFFAOYSA-N,COC1=CC(=C(OC)C=C1)C=O,-2.32,0.0,1,G1
C-262,"2,4,6-trichlorophenol","InChI=1S/C6H3Cl3O/c7-3-1-4(8)6(10)5(9)2-3/h1-2,10H",LINPIYWFGCPVIE-UHFFFAOYSA-N,OC1=C(Cl)C=C(Cl)C=C1Cl,-2.39,0.025000000000000133,2,G3
C-263,isoquinoline,InChI=1S/C9H7N/c1-2-4-9-7-10-6-5-8(9)3-1/h1-7H,AWJUIBRHMBBTKR-UHFFFAOYSA-N,C1=CC2=C(C=C1)C=NC=C2,-1.46,0.0050000000000000044,2,G3
C-266,"spiro-5,5-decamethylenebarbituric acid","InChI=1S/C14H22N2O3/c17-11-14(12(18)16-13(19)15-11)9-7-5-3-1-2-4-6-8-10-14/h1-10H2,(H2,15,16,17,18,19)",COBKAOXSLALTLT-UHFFFAOYSA-N,O=C1NC(=O)C2(CCCCCCCCCC2)C(=O)N1,-4.59,0.0,1,G1
C-267,"4-isothiocyanato-n,n-dimethylaniline","InChI=1S/C9H10N2S/c1-11(2)9-5-3-8(4-6-9)10-7-12/h3-6H,1-2H3",HRDJPEMAGYHSJR-UHFFFAOYSA-N,CN(C)C1=CC=C(C=C1)N=C=S,-4.13,0.0,1,G1
C-269,guaifenesin;  guaiphenesin;  glyceryl  guaiacolate,"InChI=1S/C10H14O4/c1-13-9-4-2-3-5-10(9)14-7-8(12)6-11/h2-5,8,11-12H,6-7H2,1H3",HSRJKNPTNIJEKV-UHFFFAOYSA-N,COC1=CC=CC=C1OCC(O)CO,-0.6,0.0,1,G1
C-270,2-methylbenzimidazole,"InChI=1S/C8H8N2/c1-6-9-7-4-2-3-5-8(7)10-6/h2-5H,1H3,(H,9,10)",LDZYRENCLPUXAX-UHFFFAOYSA-N,CC1=NC2=C([NH]1)C=CC=C2,-1.96,0.0,1,G1
C-273,norethindrone;  norethisterone,"InChI=1S/C20H26O2/c1-3-20(22)11-9-18-17-6-4-13-12-14(21)5-7-15(13)16(17)8-10-19(18,20)2/h1,12,15-18,22H,4-11H2,2H3",VIKNJXKGJWUCNN-UHFFFAOYSA-N,CC12CCC3C(CCC4=CC(=O)CCC34)C1CCC2(O)C#C,-4.63,0.157480157480236,3,G5
C-276,"phthalazine;  benzo[d]pyridazine;  4,5-benzopyridazine",InChI=1S/C8H6N2/c1-2-4-8-6-10-9-5-7(8)3-1/h1-6H,LFSXCDWNBUNEEM-UHFFFAOYSA-N,C1=CC2=C(C=C1)C=NN=C2,-0.42,0.0,1,G1
C-277,2-(phenylhydrazono)malononitrile,"InChI=1S/C9H6N4/c10-6-9(7-11)13-12-8-4-2-1-3-5-8/h1-5,12H",MENUYOGJCXAFFU-UHFFFAOYSA-N,N#CC(=NNC1=CC=CC=C1)C#N,-3.36,0.0,1,G1
C-278,quinoxaline,InChI=1S/C8H6N2/c1-2-4-8-7(3-1)9-5-6-10-8/h1-6H,XSCHRSMBECNVNS-UHFFFAOYSA-N,C1=CC2=C(C=C1)N=CC=N2,0.71,0.0,1,G1
C-280,5-isopropylbarbituric  acid,"InChI=1S/C7H10N2O3/c1-3(2)4-5(10)8-7(12)9-6(4)11/h3-4H,1-2H3,(H2,8,9,10,11,12)",GFPIGNBQTXNNAG-UHFFFAOYSA-N,CC(C)C1C(=O)NC(=O)NC1=O,-1.46,0.0,1,G1
C-281,prostaglandin e1;  alprostadil,"InChI=1S/C20H34O5/c1-2-3-6-9-15(21)12-13-17-16(18(22)14-19(17)23)10-7-4-5-8-11-20(24)25/h12-13,15-17,19,21,23H,2-11,14H2,1H3,(H,24,25)/b13-12+",GMVPRGQOIOIIMI-OUKQBFOZSA-N,CCCCCC(O)/C=C/C1C(O)CC(=O)C1CCCCCCC(O)=O,-3.67,0.0,1,G1
C-283,pentafluorophenol,InChI=1S/C6HF5O/c7-1-2(8)4(10)6(12)5(11)3(1)9/h12H,XBNGYFFABRKICK-UHFFFAOYSA-N,OC1=C(F)C(=C(F)C(=C1F)F)F,-0.52,0.0,1,G1
C-286,2-bromobenzoic acid,"InChI=1S/C7H5BrO2/c8-6-4-2-1-3-5(6)7(9)10/h1-4H,(H,9,10)",XRXMNWGCKISMOH-UHFFFAOYSA-N,OC(=O)C1=C(Br)C=CC=C1,-2.05,0.007649999999999935,2,G3
C-287,chlordimeform,"InChI=1S/C10H13ClN2/c1-8-6-9(11)4-5-10(8)12-7-13(2)3/h4-7H,1-3H3",STUSTWKEFDQFFZ-UHFFFAOYSA-N,CN(C)C=NC1=C(C)C=C(Cl)C=C1,-2.88,0.010000000000000009,2,G3
C-290,"spiro-5,5-undecamethylenebarbituric acid","InChI=1S/C15H24N2O3/c18-12-15(13(19)17-14(20)16-12)10-8-6-4-2-1-3-5-7-9-11-15/h1-11H2,(H2,16,17,18,19,20)",HALJZHTVEIOBKZ-UHFFFAOYSA-N,O=C1NC(=O)C2(CCCCCCCCCCC2)C(=O)N1,-5.8,0.0,1,G1
C-293,prostaglandin e2;  dinoprostone,"InChI=1S/C20H32O5/c1-2-3-6-9-15(21)12-13-17-16(18(22)14-19(17)23)10-7-4-5-8-11-20(24)25/h4,7,12-13,15-17,19,21,23H,2-3,5-6,8-11,14H2,1H3,(H,24,25)/b7-4+,13-12+",XEYBRNLFEZDVAW-RTYMFESYSA-N,CCCCCC(O)/C=C/C1C(O)CC(=O)C1C\C=C\CCCC(O)=O,-2.47,0.0,1,G1
C-296,"isophthalic  acid;  benzene-1,3-dicarboxylic acid","InChI=1S/C8H6O4/c9-7(10)5-2-1-3-6(4-5)8(11)12/h1-4H,(H,9,10)(H,11,12)",QQVIHTHCMHWDBS-UHFFFAOYSA-N,OC(=O)C1=CC(=CC=C1)C(O)=O,-3.22,0.0,1,G1
C-297,"2,4-dichlorobenzoic  acid","InChI=1S/C7H4Cl2O2/c8-4-1-2-5(7(10)11)6(9)3-4/h1-3H,(H,10,11)",ATCRIUVQKHMXSH-UHFFFAOYSA-N,OC(=O)C1=C(Cl)C=C(Cl)C=C1,-2.6,0.0,1,G1
C-299,4-nitrobenzoic acid,"InChI=1S/C7H5NO4/c9-7(10)5-1-3-6(4-2-5)8(11)12/h1-4H,(H,9,10)",OTLNPYWUJOZPPA-UHFFFAOYSA-N,OC(=O)C1=CC=C(C=C1)[N+]([O-])=O,-2.84,0.05078057371344539,3,G5
C-300,aldrin,"InChI=1S/C12H8Cl6/c13-8-9(14)11(16)7-5-2-1-4(3-5)6(7)10(8,15)12(11,17)18/h1-2,4-7H,3H2",QBYJBZPUGVGKQQ-UHFFFAOYSA-N,ClC1=C(Cl)C2(Cl)C3C4CC(C=C4)C3C1(Cl)C2(Cl)Cl,-6.31,0.5100000000000002,2,G2
C-302,"androstenedione;  androst-4-ene-3,17-dione","InChI=1S/C19H26O2/c1-18-9-7-13(20)11-12(18)3-4-14-15-5-6-17(21)19(15,2)10-8-16(14)18/h11,14-16H,3-10H2,1-2H3",AEMFNILZOJDQLW-UHFFFAOYSA-N,CC12CCC3C(CCC4=CC(=O)CCC34C)C1CCC2=O,-3.7,0.0050000000000001155,2,G3
C-303,5-ethyl-5-(2-ethyl-1-cyclohexyliden-1-yl)barbituric  acid,"InChI=1S/C14H20N2O3/c1-3-9-7-5-6-8-10(9)14(4-2)11(17)15-13(19)16-12(14)18/h3-8H2,1-2H3,(H2,15,16,17,18,19)",AVOQDBLSHMVAMW-UHFFFAOYSA-N,CCC1=C(CCCC1)C2(CC)C(=O)NC(=O)NC2=O,-3.53,0.0,1,G1
C-304,Norgestrel,"InChI=1S/C21H28O2/c1-3-20-11-9-17-16-8-6-15(22)13-14(16)5-7-18(17)19(20)10-12-21(20,23)4-2/h2,13,16-19,23H,3,5-12H2,1H3",WWYNJERNGUHSAO-UHFFFAOYSA-N,CCC12CCC3C(CCC4=CC(=O)CCC34)C1CCC2(O)C#C,-5.19,0.0,1,G1
C-308,tetramethrin; phthaltrin,"InChI=1S/C19H25NO4/c1-11(2)9-14-15(19(14,3)4)18(23)24-10-20-16(21)12-7-5-6-8-13(12)17(20)22/h9,14-15H,5-8,10H2,1-4H3",CXBMCYHAMVGWJQ-UHFFFAOYSA-N,CC(C)=CC1C(C(=O)OCN2C(=O)C3=C(CCCC3)C2=O)C1(C)C,-5.26,0.0,1,G1
C-310,hippuric  acid;  n-benzoylglycine,"InChI=1S/C9H9NO3/c11-8(12)6-10-9(13)7-4-2-1-3-5-7/h1-5H,6H2,(H,10,13)(H,11,12)",QIAFMBKCNZACKA-UHFFFAOYSA-N,OC(=O)CNC(=O)C1=CC=CC=C1,-1.69,0.0050000000000000044,2,G3
C-311,"2,5-dichloronitrobenzene",InChI=1S/C6H3Cl2NO2/c7-4-1-2-5(8)6(3-4)9(10)11/h1-3H,RZKKOBGFCAHLCZ-UHFFFAOYSA-N,[O-][N+](=O)C1=C(Cl)C=CC(=C1)Cl,-3.32,0.40849999999999986,2,G3
C-312,"1,4-dinitrobenzene",InChI=1S/C6H4N2O4/c9-7(10)5-1-2-6(4-3-5)8(11)12/h1-4H,FYFDQJRXFWGIBS-UHFFFAOYSA-N,[O-][N+](=O)C1=CC=C(C=C1)[N+]([O-])=O,-3.39,0.0,1,G1
C-319,2-nitrobenzoic acid,"InChI=1S/C7H5NO4/c9-7(10)5-3-1-2-4-6(5)8(11)12/h1-4H,(H,9,10)",SLAMLWHELXOEJZ-UHFFFAOYSA-N,OC(=O)C1=C(C=CC=C1)[N+]([O-])=O,-1.35,0.01100000000000001,2,G3