ID,Name,InChI,InChIKey,SMILES,Solubility,SD,Occurrences,Group
B-2084,"2,4,6-cycloheptatrien-1-one, 3-bromo-2-hydroxy-","InChI=1S/C7H5BrO2/c8-5-3-1-2-4-6(9)7(5)10/h1-4H,(H,9,10)",ZWZVMMDEDBKUEC-UHFFFAOYSA-N,OC1=C(Br)C=CC=CC1=O,-2.4352,0.0,1,G1
B-2085,"ethanone, 1-(2-methyloxiranyl)-","InChI=1S/C5H8O2/c1-4(6)5(2)3-7-5/h3H2,1-2H3",MQUWXOWAAZHBSG-UHFFFAOYSA-N,CC(=O)C1(C)CO1,0.3797,0.0,1,G1
B-2086,"glycine, n-[(ethylthio)thioxomethyl]-","InChI=1S/C5H9NO2S2/c1-2-10-5(9)6-3-4(7)8/h2-3H2,1H3,(H,6,9)(H,7,8)",OEVJJBPEVKMYFQ-UHFFFAOYSA-N,CCSC(=S)NCC(O)=O,-1.0882,0.0,1,G1
B-2087,lactulose,"InChI=1S/C12H22O11/c13-1-4-6(16)7(17)8(18)11(21-4)22-9-5(2-14)23-12(20,3-15)10(9)19/h4-11,13-20H,1-3H2/t4-,5-,6+,7+,8-,9-,10+,11+,12-/m1/s1",JCQLYHFGKNRPGE-FCVZTGTOSA-N,OC[C@H]1O[C@@H](O[C@@H]2[C@@H](CO)O[C@](O)(CO)[C@H]2O)[C@H](O)[C@@H](O)[C@H]1O,0.3487,0.0,1,G1
B-2088,"carbamic acid, diethyl-, methyl ester","InChI=1S/C6H13NO2/c1-4-7(5-2)6(8)9-3/h4-5H2,1-3H3",VAGMFMWZIMXAGK-UHFFFAOYSA-N,CCN(CC)C(=O)OC,-0.2918,0.0,1,G1
B-2089,"1-naphthalenebutanoic acid, .gamma.-oxo-","InChI=1S/C14H12O3/c15-13(8-9-14(16)17)12-7-3-5-10-4-1-2-6-11(10)12/h1-7H,8-9H2,(H,16,17)",YNEXYDHOGAIPHO-UHFFFAOYSA-N,OC(=O)CCC(=O)c1cccc2ccccc12,-3.4833,0.0,1,G1
B-2092,"phosphonic diamide, p-phenyl-","InChI=1S/C6H9N2OP/c7-10(8,9)6-4-2-1-3-5-6/h1-5H,(H4,7,8,9)",SIZHJVYZJFWGHF-UHFFFAOYSA-N,N[P](N)(=O)c1ccccc1,-1.1482,0.0,1,G1
B-2093,"1,3-propanediamine, n-phenyl-","InChI=1S/C9H14N2/c10-7-4-8-11-9-5-2-1-3-6-9/h1-3,5-6,11H,4,7-8,10H2",DOSWHECVUKBMCG-UHFFFAOYSA-N,NCCCNc1ccccc1,-1.6543,0.0,1,G1
B-2096,kryptocyanine,"InChI=1S/C25H25N2.HI/c1-3-26-18-16-20(22-12-5-7-14-24(22)26)10-9-11-21-17-19-27(4-2)25-15-8-6-13-23(21)25;/h5-19H,3-4H2,1-2H3;1H/q+1;/p-1",CEJANLKHJMMNQB-UHFFFAOYSA-M,[I-].CCN1C=CC(=CC=Cc2cc[n+](CC)c3ccccc23)c4ccccc14,-2.6816,0.0,1,G1
B-2099,"serine, o-ethyl-","InChI=1S/C5H11NO3/c1-2-9-3-4(6)5(7)8/h4H,2-3,6H2,1H3,(H,7,8)/t4-/m0/s1",AFGCRUGTZPDWSF-BYPYZUCNSA-N,CCOC[C@H](N)C(O)=O,0.524,0.0,1,G1
B-2100,"propanoic acid, 2,2'-dithiobis-","InChI=1S/C6H10O4S2/c7-5(8)1-3-11-12-4-2-6(9)10/h1-4H2,(H,7,8)(H,9,10)",YCLSOMLVSHPPFV-UHFFFAOYSA-N,OC(=O)CCSSCCC(O)=O,-0.9301,0.36785,2,G3
B-2103,4-methyl-1-penten-3-ol,"InChI=1S/C6H12O/c1-4-6(7)5(2)3/h4-7H,1H2,2-3H3",SZKVYEHTIWILMA-UHFFFAOYSA-N,CC(C)C(O)C=C,-0.515,0.007500000000000007,2,G3
B-2104,2-hexene-4-ol,"InChI=1S/C6H12O/c1-3-5-6(7)4-2/h3,5-7H,4H2,1-2H3/b5-3+",KWUXUOPPQQMMIL-HWKANZROSA-N,CCC(O)\C=C\C,-0.4198,0.009899999999999992,2,G3
B-2105,"benzenepropanoic acid, .alpha.-oxo-.beta.-phenyl","InChI=1S/C15H12O3/c16-14(15(17)18)13(11-7-3-1-4-8-11)12-9-5-2-6-10-12/h1-10,13H,(H,17,18)",VDIDZYZFFJPJCJ-UHFFFAOYSA-N,OC(=O)C(=O)C(c1ccccc1)c2ccccc2,-2.3354,0.0,1,G1
B-2107,"phosphinic acid, di-4-morpholinyl-, phenyl ester","InChI=1S/C14H21N2O4P/c17-21(15-6-10-18-11-7-15,16-8-12-19-13-9-16)20-14-4-2-1-3-5-14/h1-5H,6-13H2",ARRSANOSOGNTIJ-UHFFFAOYSA-N,O=[P](Oc1ccccc1)(N2CCOCC2)N3CCOCC3,0.3925,0.0,1,G1
B-2108,"propanoic acid, 3-hydroxy-, butyl ester","InChI=1S/C7H14O3/c1-2-3-6-10-7(9)4-5-8/h8H,2-6H2,1H3",MENWVOUYOZQBDM-UHFFFAOYSA-N,CCCCOC(=O)CCO,-1.2899,0.0,1,G1
B-2110,"butanedioic acid, 2,2'-thiobis-","InChI=1S/C8H10O8S/c9-5(10)1-3(7(13)14)17-4(8(15)16)2-6(11)12/h3-4H,1-2H2,(H,9,10)(H,11,12)(H,13,14)(H,15,16)",SASYRHXVHLPMQD-UHFFFAOYSA-N,OC(=O)CC(SC(CC(O)=O)C(O)=O)C(O)=O,-0.4908,0.0,1,G1
B-2112,"acetamide, 2-chloro-n-(chloroacetyl)-","InChI=1S/C4H5Cl2NO2/c5-1-3(8)7-4(9)2-6/h1-2H2,(H,7,8,9)",UWZCYHHAEYIVRW-UHFFFAOYSA-N,ClCC(=O)NC(=O)CCl,-2.2304,0.0,1,G1
B-2113,"2-benzothiazolesulfenamide, n,n-dicyclohexyl-","InChI=1S/C19H26N2S2/c1-3-9-15(10-4-1)21(16-11-5-2-6-12-16)23-19-20-17-13-7-8-14-18(17)22-19/h7-8,13-16H,1-6,9-12H2",CMAUJSNXENPPOF-UHFFFAOYSA-N,C1CCC(CC1)N(Sc2sc3ccccc3n2)C4CCCCC4,-6.7886,0.0,1,G1
B-2114,"benzoic acid, 4,5-dimethoxy-2-nitro-","InChI=1S/C9H9NO6/c1-15-7-3-5(9(11)12)6(10(13)14)4-8(7)16-2/h3-4H,1-2H3,(H,11,12)/p-1",WWCMFGBGMJAJRX-UHFFFAOYSA-M,COc1cc(C([O-])=O)c(cc1OC)[N+]([O-])=O,-0.7543,0.0,1,G1
B-2116,"piperidine, 1-(phenylsulfonyl)-","InChI=1S/C11H15NO2S/c13-15(14,11-7-3-1-4-8-11)12-9-5-2-6-10-12/h1,3-4,7-8H,2,5-6,9-10H2",VRYWBMTXKFQBCA-UHFFFAOYSA-N,O=[S](=O)(N1CCCCC1)c2ccccc2,-2.5365,0.0,1,G1
B-2117,"benzeneacetonitrile, .alpha.-(diethylamino)-","InChI=1S/C12H16N2/c1-3-14(4-2)12(10-13)11-8-6-5-7-9-11/h5-9,12H,3-4H2,1-2H3",MNUHBMWEFILMEW-UHFFFAOYSA-N,CCN(CC)C(C#N)c1ccccc1,-0.9738,0.0,1,G1
B-2121,"quinoline, 2-(nitromethyl)-","InChI=1S/C10H8N2O2/c13-12(14)7-9-6-5-8-3-1-2-4-10(8)11-9/h1-6H,7H2",SIQRLWJNWZCECZ-UHFFFAOYSA-N,[O-][N+](=O)Cc1ccc2ccccc2n1,-2.0545,0.0,1,G1
B-2123,"hexanedioic acid, 2,5-dimercapto-","InChI=1S/C6H10O4S2/c7-5(8)3(11)1-2-4(12)6(9)10/h3-4,11-12H,1-2H2,(H,7,8)(H,9,10)",SUVZGLSQFGNBQI-UHFFFAOYSA-N,OC(=O)C(S)CCC(S)C(O)=O,-2.4758,0.0,1,G1
B-2124,"l-aspartic acid, n-[(ethylthio)thioxomethyl]-","InChI=1S/C7H11NO4S2/c1-2-14-7(13)8-4(6(11)12)3-5(9)10/h4H,2-3H2,1H3,(H,8,13)(H,9,10)(H,11,12)/t4-/m0/s1",KKUMBCQWVRPGMH-BYPYZUCNSA-N,CCSC(=S)N[C@@H](CC(O)=O)C(O)=O,-1.3863,0.0,1,G1
B-2125,"ethane, 1,1'-oxybis[2-[(2-chloroethyl)sulfonyl]-","InChI=1S/C8H16Cl2O5S2/c9-1-5-16(11,12)7-3-15-4-8-17(13,14)6-2-10/h1-8H2",IMQZHNMZKUCNAB-UHFFFAOYSA-N,ClCC[S](=O)(=O)CCOCC[S](=O)(=O)CCCl,-1.9408,0.0,1,G1
B-2126,"1,4-benzenedicarboxylic acid, 2-methoxy-","InChI=1S/C9H8O5/c1-14-7-4-5(8(10)11)2-3-6(7)9(12)13/h2-4H,1H3,(H,10,11)(H,12,13)",VQBBXLZPRXHYBO-UHFFFAOYSA-N,COc1cc(ccc1C(O)=O)C(O)=O,-1.9916,0.0,1,G1
B-2128,"acetamide, n-(4-chloro-2-methylphenyl)-","InChI=1S/C9H10ClNO/c1-6-5-8(10)3-4-9(6)11-7(2)12/h3-5H,1-2H3,(H,11,12)",WMHHXYOPEQARIN-UHFFFAOYSA-N,CC(=O)Nc1ccc(Cl)cc1C,-2.3097,0.0,1,G1
B-2130,"benzeneacetic acid, -[(sulfooxy)methyl]-, 8-meth","InChI=1S/C17H23NO6S/c1-18-13-7-8-14(18)10-15(9-13)24-17(19)16(11-23-25(20,21)22)12-5-3-2-4-6-12/h2-6,13-16H,7-11H2,1H3,(H,20,21,22)",GMLBHJMTVBLXLJ-UHFFFAOYSA-N,CN1C2CCC1CC(C2)OC(=O)C(CO[S](O)(=O)=O)c3ccccc3,-1.5675,0.0,1,G1
B-2133,cyclohexylacetic acid,"InChI=1S/C8H14O2/c9-8(10)6-7-4-2-1-3-5-7/h7H,1-6H2,(H,9,10)",LJOODBDWMQKMFB-UHFFFAOYSA-N,OC(=O)CC1CCCCC1,-1.6935,0.0,1,G1
B-2134,"propanamide, n-hexadecyl-2-hydroxy-","InChI=1S/C19H39NO2/c1-3-4-5-6-7-8-9-10-11-12-13-14-15-16-17-20-19(22)18(2)21/h18,21H,3-17H2,1-2H3,(H,20,22)",SNUWGZLOWPBEIJ-UHFFFAOYSA-N,CCCCCCCCCCCCCCCCNC(=O)C(C)O,-3.6512,0.0,1,G1
B-2135,"propanamide, 2-hydroxy-n-pentyl-","InChI=1S/C8H17NO2/c1-3-4-5-6-9-8(11)7(2)10/h7,10H,3-6H2,1-2H3,(H,9,11)",CBHYPXXMQKAMNM-UHFFFAOYSA-N,CCCCCNC(=O)C(C)O,-0.3825,0.0,1,G1
B-2136,"d-glycero-d-gulo-heptopyranoside, phenyl, á-","InChI=1S/C13H18O7/c14-6-8(15)12-10(17)9(16)11(18)13(20-12)19-7-4-2-1-3-5-7/h1-5,8-18H,6H2",UWYXADYVSWKWAX-UHFFFAOYSA-N,OCC(O)C1OC(Oc2ccccc2)C(O)C(O)C1O,-1.5537,0.0,1,G1
B-2137,"phosphonic acid, 3-(nitrophenyl)-","InChI=1S/C6H6NO5P/c8-7(9)5-2-1-3-6(4-5)13(10,11)12/h1-4H,(H2,10,11,12)",OXWXINKWKITCIH-UHFFFAOYSA-N,O[P](O)(=O)c1cccc(c1)[N+]([O-])=O,0.6835,0.0,1,G1
B-2138,"3-pyridinecarboxylic acid, decyl ester","InChI=1S/C16H25NO2/c1-2-3-4-5-6-7-8-9-13-19-16(18)15-11-10-12-17-14-15/h10-12,14H,2-9,13H2,1H3",OVSJCKDIBDNMMK-UHFFFAOYSA-N,CCCCCCCCCCOC(=O)c1cccnc1,-3.1901,0.0,1,G1
B-2139,"dl-leucine, n-formyl-","InChI=1S/C7H13NO3/c1-5(2)3-6(7(10)11)8-4-9/h4-6H,3H2,1-2H3,(H,8,9)(H,10,11)",HFBHOAHFRNLZGN-UHFFFAOYSA-N,CC(C)CC(NC=O)C(O)=O,-0.7328,0.0,1,G1
B-2141,"methanesulfonamide, n-(methylsulfonyl)-","InChI=1S/C2H7NO4S2/c1-8(4,5)3-9(2,6)7/h3H,1-2H3",ICTGBOFCIDHVPA-UHFFFAOYSA-N,C[S](=O)(=O)N[S](C)(=O)=O,0.0402,0.0,1,G1
B-2142,"propionic acid, 3-methoxy-, propyl ester","InChI=1S/C7H14O3/c1-3-5-10-7(8)4-6-9-2/h3-6H2,1-2H3",JCMFJIHDWDKYIL-UHFFFAOYSA-N,CCCOC(=O)CCOC,-0.6598,0.0,1,G1
B-2143,"1,1,4,4-tetramethoxy-but-2-ene","InChI=1S/C8H16O4/c1-9-7(10-2)5-6-8(11-3)12-4/h5-8H,1-4H3/b6-5-",ZFGVCDSFRAMNMT-WAYWQWQTSA-N,COC(OC)\C=C/C(OC)OC,0.055,0.0,1,G1
B-2144,"1h-pyrrole, 2,3-dihydro-1,5-dimethyl-","InChI=1S/C6H11N/c1-6-4-3-5-7(6)2/h4H,3,5H2,1-2H3",MFGQUMAXNNHCNG-UHFFFAOYSA-N,CN1CCC=C1C,0.1265,0.0,1,G1
B-2146,"phosphonothioic  dihydrazide, p-phenyl-","InChI=1S/C6H11N4PS/c7-9-11(12,10-8)6-4-2-1-3-5-6/h1-5H,7-8H2,(H2,9,10,12)",HDCICIWMRHHDMV-UHFFFAOYSA-N,NN[P](=S)(NN)c1ccccc1,-1.425,0.0,1,G1
B-2147,"acetic acid, (3,5-dimethylphenoxy)-","InChI=1S/C10H12O3/c1-7-3-8(2)5-9(4-7)13-6-10(11)12/h3-5H,6H2,1-2H3,(H,11,12)",NIPZZANLNKBKIS-UHFFFAOYSA-N,Cc1cc(C)cc(OCC(O)=O)c1,-2.3527,0.0,1,G1
B-2149,n-hexyl-lactamide,"InChI=1S/C9H19NO2/c1-3-4-5-6-7-10-9(12)8(2)11/h8,11H,3-7H2,1-2H3,(H,10,12)",RUUHGTZPDZPPOC-UHFFFAOYSA-N,CCCCCCNC(=O)C(C)O,-0.9487,0.0,1,G1
B-2150,2-acetoxy-propionic acid butyl ester,"InChI=1S/C9H16O4/c1-4-5-6-12-9(11)7(2)13-8(3)10/h7H,4-6H2,1-3H3",FRKISMRVEIRXFS-UHFFFAOYSA-N,CCCCOC(=O)C(C)OC(C)=O,-0.7536,0.0,1,G1
B-2151,"1h-purine-2,6-dione, 8-ethyl-3,7-dihydro-1,3,7-t","InChI=1S/C10H14N4O2/c1-5-6-11-8-7(12(6)2)9(15)14(4)10(16)13(8)3/h5H2,1-4H3",DRWCPERSPGFNIK-UHFFFAOYSA-N,CCc1nc2N(C)C(=O)N(C)C(=O)c2n1C,-1.5687,0.0,1,G1
B-2152,"imidodicarbonimidic diamide, n-2-naphthalenyl-","InChI=1S/C12H13N5/c13-11(14)17-12(15)16-10-6-5-8-3-1-2-4-9(8)7-10/h1-7H,(H6,13,14,15,16,17)",RDLIBCPWPNCFBW-UHFFFAOYSA-N,NC(N)=NC(N)=Nc1ccc2ccccc2c1,-2.5497,0.0,1,G1
B-2153,"(2,5-dioxoimidazolidin-4-yl)acetic acid","InChI=1S/C5H6N2O4/c8-3(9)1-2-4(10)7-5(11)6-2/h2H,1H2,(H,8,9)(H2,6,7,10,11)",DQQLZADYSWBCOX-UHFFFAOYSA-N,OC(=O)CC1NC(=O)NC1=O,-1.1517,0.0,1,G1
B-2154,"phenol, 2-methyl-5-nitro-","InChI=1S/C7H7NO3/c1-5-2-3-6(8(10)11)4-7(5)9/h2-4,9H,1H3",UMFDLIXUUJMPSI-UHFFFAOYSA-N,Cc1ccc(cc1O)[N+]([O-])=O,-2.1851,0.0,1,G1
B-2155,"carbamothioic acid, s-[2-oxo-2-(phenylamino)ethy","InChI=1S/C9H10N2O2S/c10-9(13)14-6-8(12)11-7-4-2-1-3-5-7/h1-5H,6H2,(H2,10,13)(H,11,12)",CEINNGQDMFZTJK-UHFFFAOYSA-N,NC(=O)SCC(=O)Nc1ccccc1,-1.3228,0.0,1,G1
B-2156,"butanedioic acid, (diphenylmethylene)-, 1-ethyl","InChI=1S/C19H18O4/c1-2-23-19(22)16(13-17(20)21)18(14-9-5-3-6-10-14)15-11-7-4-8-12-15/h3-12H,2,13H2,1H3,(H,20,21)",DLPKPLGMFNWETI-UHFFFAOYSA-N,CCOC(=O)C(CC(O)=O)=C(c1ccccc1)c2ccccc2,-2.1908,0.0,1,G1
B-2157,"6h-purin-6-one, 2-chloro-1,7-dihydro-7-methyl-,","InChI=1S/C6H7ClN6/c1-13-2-9-4-3(13)5(12-8)11-6(7)10-4/h2H,8H2,1H3,(H,10,11,12)",DSBMZQSBWWASSE-UHFFFAOYSA-N,Cn1cnc2nc(Cl)nc(NN)c12,-1.1427,0.0,1,G1
B-2158,"4h-pyran-3,5-dicarboxylic acid, 2,6-dimethyl-4-o","InChI=1S/C13H16O6/c1-5-17-12(15)9-7(3)19-8(4)10(11(9)14)13(16)18-6-2/h5-6H2,1-4H3",JISSLTOKQRHSMJ-UHFFFAOYSA-N,CCOC(=O)C1=C(C)OC(=C(C(=O)OCC)C1=O)C,-1.5255,0.0,1,G1
B-2159,"benzenamine, 2-iodo-5-nitro-","InChI=1S/C6H5IN2O2/c7-5-2-1-4(9(10)11)3-6(5)8/h1-3H,8H2",VKQOHFHGWCXKOA-UHFFFAOYSA-N,Nc1cc(ccc1I)[N+]([O-])=O,-4.4216,0.0,1,G1
B-2160,"l-glutamic acid, n,n-bis(2-cyanoethyl)-","InChI=1S/C11H15N3O4/c12-5-1-7-14(8-2-6-13)9(11(17)18)3-4-10(15)16/h9H,1-4,7-8H2,(H,15,16)(H,17,18)",JQXSGQACFFFOIU-UHFFFAOYSA-N,OC(=O)CCC(N(CCC#N)CCC#N)C(O)=O,-0.2275,0.0,1,G1
B-2161,"dl-methionine, n,n-bis(2-cyanoethyl)-","InChI=1S/C11H17N3O2S/c1-17-9-4-10(11(15)16)14(7-2-5-12)8-3-6-13/h10H,2-4,7-9H2,1H3,(H,15,16)",JXPCJFWAMGPAQN-UHFFFAOYSA-N,CSCCC(N(CCC#N)CCC#N)C(O)=O,-1.3279,0.0,1,G1
B-2162,"propanoic acid, 2-hydroxy-, octyl ester","InChI=1S/C11H22O3/c1-3-4-5-6-7-8-9-14-11(13)10(2)12/h10,12H,3-9H2,1-2H3",SFBIZPBTKROSDE-UHFFFAOYSA-N,CCCCCCCCOC(=O)C(C)O,-1.2726,0.0,1,G1
B-2163,"2h-1,4-benzoxazin-3(4h)-one","InChI=1S/C8H7NO2/c10-8-5-11-7-4-2-1-3-6(7)9-8/h1-4H,5H2,(H,9,10)",QRCGFTXRXYMJOS-UHFFFAOYSA-N,O=C1COc2ccccc2N1,-2.5716,0.0,1,G1
B-2164,"2-butenedioic acid, 2-propyl-, (e)-","InChI=1S/C7H10O4/c1-2-3-5(7(10)11)4-6(8)9/h4H,2-3H2,1H3,(H,8,9)(H,10,11)/b5-4+",CCKSYUMJLIMSQK-SNAWJCMRSA-N,CCC\C(=C/C(O)=O)C(O)=O,-1.1538,0.0,1,G1
B-2165,"1,4-piperazinedicarboxylic acid, diethyl ester","InChI=1S/C10H18N2O4/c1-3-15-9(13)11-5-7-12(8-6-11)10(14)16-4-2/h3-8H2,1-2H3",NAEAAGULDNVNCW-UHFFFAOYSA-N,CCOC(=O)N1CCN(CC1)C(=O)OCC,-0.7288,0.0,1,G1
B-2166,"2,6-di-sec-butylphenol","InChI=1S/C14H22O/c1-5-10(3)12-8-7-9-13(14(12)15)11(4)6-2/h7-11,15H,5-6H2,1-4H3/t10-,11+",FHTGJZOULSYEOB-PHIMTYICSA-N,CC[C@@H](C)c1cccc([C@@H](C)CC)c1O,-5.0593,0.0,1,G1
B-2167,"pyrene, 1-nitro-",InChI=1S/C16H9NO2/c18-17(19)14-9-7-12-5-4-10-2-1-3-11-6-8-13(14)16(12)15(10)11/h1-9H,ALRLPDGCPYIVHP-UHFFFAOYSA-N,[O-][N+](=O)c1ccc2ccc3cccc4ccc1c2c34,-7.3213,0.0,1,G1
B-2168,"hydrazinecarboxamide, 1-ethyl-2-[(5-nitro-2-fura","InChI=1S/C8H10N4O4/c1-2-11(8(9)13)10-5-6-3-4-7(16-6)12(14)15/h3-5H,2H2,1H3,(H2,9,13)/b10-5+",JGPNCLKRECLYTO-BJMVGYQFSA-N,CCN(/N=C/c1oc(cc1)[N+]([O-])=O)C(N)=O,-2.9395,0.0,1,G1
B-2169,6-phenylcaproic acid,"InChI=1S/C12H16O2/c13-12(14)10-6-2-5-9-11-7-3-1-4-8-11/h1,3-4,7-8H,2,5-6,9-10H2,(H,13,14)",JTXZPQIXIXYMDY-UHFFFAOYSA-N,OC(=O)CCCCCc1ccccc1,-2.6026,0.0,1,G1
B-2170,3-methyl-3-heptanol,"InChI=1S/C8H18O/c1-4-6-7-8(3,9)5-2/h9H,4-7H2,1-3H3",PQOSNJHBSNZITJ-UHFFFAOYSA-N,CCCCC(C)(O)CC,-1.7356,0.06779999999999997,2,G3
B-2171,"1-cyclopentene-1-carboxylic acid, 2,3,3-trimethy","InChI=1S/C9H14O2/c1-6-7(8(10)11)4-5-9(6,2)3/h4-5H2,1-3H3,(H,10,11)",CVPXQMUHAZMTEO-UHFFFAOYSA-N,CC1=C(CCC1(C)C)C(O)=O,-2.8871,0.0,1,G1
B-2173,triamcinolone hexacetonide,"InChI=1S/C30H41FO7/c1-25(2,3)15-24(35)36-16-22(34)30-23(37-26(4,5)38-30)13-20-19-9-8-17-12-18(32)10-11-27(17,6)29(19,31)21(33)14-28(20,30)7/h10-12,19-21,23,33H,8-9,13-16H2,1-7H3/t19-,20-,21-,23+,27-,28-,29-,30+/m0/s1",TZIZWYVVGLXXFV-FLRHRWPCSA-N,CC(C)(C)CC(=O)OCC(=O)[C@@]12OC(C)(C)O[C@@H]1C[C@H]3[C@@H]4CCC5=CC(=O)C=C[C@]5(C)[C@@]4(F)[C@@H](O)C[C@]23C,-5.1244,0.0,1,G1
B-2175,"1h-purine-1-acetic acid, 2,3,6,7-tetrahydro-3,7-","InChI=1S/C9H10N4O4/c1-11-4-10-7-6(11)8(16)13(3-5(14)15)9(17)12(7)2/h4H,3H2,1-2H3,(H,14,15)/p-1",YCTSCXLOPJCPDH-UHFFFAOYSA-M,Cn1cnc2N(C)C(=O)N(CC([O-])=O)C(=O)c12,-1.3769,0.0,1,G1
B-2176,"3,6-dimethylpiperazine-2,5-dione","InChI=1S/C6H10N2O2/c1-3-5(9)8-4(2)6(10)7-3/h3-4H,1-2H3,(H,7,10)(H,8,9)/t3-,4+",WWISPHBAYBECQZ-ZXZARUISSA-N,C[C@@H]1NC(=O)[C@@H](C)NC1=O,-0.1528,0.0,1,G1
B-2177,"2-pyrrolidinecarboxamide, 5-oxo-n-phenyl-","InChI=1S/C11H12N2O2/c14-10-7-6-9(13-10)11(15)12-8-4-2-1-3-5-8/h1-5,9H,6-7H2,(H,12,15)(H,13,14)",DLHWPLFJAJCANU-UHFFFAOYSA-N,O=C1CCC(N1)C(=O)Nc2ccccc2,-1.3278,0.0,1,G1
B-2178,"phenol, 4-(phenylthio)-","InChI=1S/C12H10OS/c13-10-6-8-12(9-7-10)14-11-4-2-1-3-5-11/h1-9,13H",XAYCNCYFKLSMGR-UHFFFAOYSA-N,Oc1ccc(Sc2ccccc2)cc1,-2.7745,0.0,1,G1
B-2179,"ethane, 1,1'-[oxybis(methyleneoxy)]bis-","InChI=1S/C6H14O3/c1-3-7-5-9-6-8-4-2/h3-6H2,1-2H3",ANPYLYUCGAFKNQ-UHFFFAOYSA-N,CCOCOCOCC,-0.1277,0.0,1,G1
B-2180,"naphtho[1,2-c]furan-1(3h)-one","InChI=1S/C12H8O2/c13-12-11-9(7-14-12)6-5-8-3-1-2-4-10(8)11/h1-6H,7H2",ARSOXHMEZHBPOS-UHFFFAOYSA-N,O=C1OCc2ccc3ccccc3c12,-3.3062,0.0,1,G1
B-2181,"glycine, n-(2-furanylcarbonyl)-","InChI=1S/C7H7NO4/c9-6(10)4-8-7(11)5-2-1-3-12-5/h1-3H,4H2,(H,8,11)(H,9,10)",KSPQDMRTZZYQLM-UHFFFAOYSA-N,OC(=O)CNC(=O)c1occc1,-0.7272,0.0,1,G1
B-2182,"5-thiazolecarboxylic acid, 2-[[(4-aminophenyl)su","InChI=1S/C10H9N3O4S2/c11-6-1-3-7(4-2-6)19(16,17)13-10-12-5-8(18-10)9(14)15/h1-5H,11H2,(H,12,13)(H,14,15)",UVWBGXXTQBAIOZ-UHFFFAOYSA-N,Nc1ccc(cc1)[S](=O)(=O)Nc2sc(cn2)C(O)=O,-2.8741,0.0,1,G1
B-2184,"butanedioic acid, 2,2-diethyl-","InChI=1S/C8H14O4/c1-3-8(4-2,7(11)12)5-6(9)10/h3-5H2,1-2H3,(H,9,10)(H,11,12)",WKRCUUPMCASSBN-UHFFFAOYSA-N,CCC(CC)(CC(O)=O)C(O)=O,-0.7962,0.0,1,G1
B-2185,"benzenepropanoic acid, .alpha.,.beta.-dihydroxy-","InChI=1S/C9H10O4/c10-7(8(11)9(12)13)6-4-2-1-3-5-6/h1-5,7-8,10-11H,(H,12,13)",BNOUUNAFHCJIJD-UHFFFAOYSA-N,OC(C(O)c1ccccc1)C(O)=O,-0.3063,0.0,1,G1
B-2186,"hydrocinnamic acid, .alpha.-ethylidene-","InChI=1S/C11H12O2/c1-2-10(11(12)13)8-9-6-4-3-5-7-9/h2-7H,8H2,1H3,(H,12,13)",LUHNRLWMHQQYAM-UHFFFAOYSA-N,CC=C(Cc1ccccc1)C(O)=O,-2.5648,0.0,1,G1
B-2187,"benzoic acid, 4-[(3-pyridinylcarbonyl)amino]-","InChI=1S/C13H10N2O3/c16-12(10-2-1-7-14-8-10)15-11-5-3-9(4-6-11)13(17)18/h1-8H,(H,15,16)(H,17,18)",LWFBUVHQVCTCKN-UHFFFAOYSA-N,OC(=O)c1ccc(NC(=O)c2cccnc2)cc1,-3.0832,0.0,1,G1
B-2188,"2-propanone, 1,1-diethoxy-","InChI=1S/C7H14O3/c1-4-9-7(6(3)8)10-5-2/h7H,4-5H2,1-3H3",SDMOBEHDSJVJHU-UHFFFAOYSA-N,CCOC(OCC)C(C)=O,-0.2059,0.0,1,G1
B-2190,"1,8,15,22-tetraazacyclooctacosane-2,9,16,23-tetr","InChI=1S/C24H44N4O4/c29-21-13-5-1-9-17-25-22(30)14-6-2-11-19-27-24(32)16-8-4-12-20-28-23(31)15-7-3-10-18-26-21/h1-20H2,(H,25,30)(H,26,29)(H,27,32)(H,28,31)",LAIGWNLGTIDKPL-UHFFFAOYSA-N,O=C1CCCCCNC(=O)CCCCCNC(=O)CCCCCNC(=O)CCCCCN1,-2.8126,0.0,1,G1
B-2193,"ethanol, 2-mercapto-, 1-acetate","InChI=1S/C4H8O2S/c1-4(5)6-2-3-7/h7H,2-3H2,1H3",YDLAHBBJAGGIJZ-UHFFFAOYSA-N,CC(=O)OCCS,-1.5,0.0,1,G1
B-2195,"thioperoxydiphosphoric acid, tetramethyl ester","InChI=1S/C4H12O4P2S4/c1-5-9(11,6-2)13-14-10(12,7-3)8-4/h1-4H3",HUTQNWSTEVZUML-UHFFFAOYSA-N,CO[P](=S)(OC)SS[P](=S)(OC)OC,-4.3981,0.0,1,G1
B-2196,"d-xylose, (aminocarbonyl)hydrazone","InChI=1S/C6H13N3O5/c7-6(14)9-8-1-3(11)5(13)4(12)2-10/h1,3-5,10-13H,2H2,(H3,7,9,14)/t3-,4+,5+/m0/s1",HJUOUZOJKPIETD-VPENINKCSA-N,NC(=O)NN=C[C@H](O)[C@@H](O)[C@H](O)CO,-0.1288,0.0,1,G1
B-2197,"propanoic acid, 3-phosphono-","InChI=1S/C3H7O5P/c4-3(5)1-2-9(6,7)8/h1-2H2,(H,4,5)(H2,6,7,8)",NLBSQHGCGGFVJW-UHFFFAOYSA-N,OC(=O)CC[P](O)(O)=O,0.5007,0.0,1,G1
B-2198,".beta.-d-glucopyranose, 4-o-.beta.-d-galactopyra","InChI=1S/C12H22O11/c13-1-3-5(15)6(16)9(19)12(22-3)23-10-4(2-14)21-11(20)8(18)7(10)17/h3-20H,1-2H2/t3-,4-,5+,6+,7-,8-,9-,10-,11-,12+/m1/s1",GUBGYTABKSRVRQ-DCSYEGIMSA-N,OC[C@H]1O[C@@H](O[C@H]2[C@H](O)[C@@H](O)[C@H](O)O[C@@H]2CO)[C@H](O)[C@@H](O)[C@H]1O,-0.8167,0.0,1,G1
B-2200,"ethanamine, 2,2'-thiobis[n,n-diethyl-","InChI=1S/C12H28N2S/c1-5-13(6-2)9-11-15-12-10-14(7-3)8-4/h5-12H2,1-4H3",LYFNBXZVKYDWNX-UHFFFAOYSA-N,CCN(CC)CCSCCN(CC)CC,-2.3663,0.0,1,G1
B-2202,5-oxo-3-phenyl-hexanoic acid,"InChI=1S/C12H14O3/c1-9(13)7-11(8-12(14)15)10-5-3-2-4-6-10/h2-6,11H,7-8H2,1H3,(H,14,15)",DUGWBMXFSCILOV-UHFFFAOYSA-N,CC(=O)CC(CC(O)=O)c1ccccc1,-1.4463,0.0,1,G1
B-2203,"benzenamine, n-ethyl-n,2,4,6-tetranitro-","InChI=1S/C8H7N5O8/c1-2-9(13(20)21)8-6(11(16)17)3-5(10(14)15)4-7(8)12(18)19/h3-4H,2H2,1H3",AWOPOGMEMRZDQH-UHFFFAOYSA-N,CCN(c1c(cc(cc1[N+]([O-])=O)[N+]([O-])=O)[N+]([O-])=O)[N+]([O-])=O,-3.7007,0.0,1,G1
B-2204,"benzenamine, 4,4'-(1,2-ethynediyl)bis-","InChI=1S/C14H12N2/c15-13-7-3-11(4-8-13)1-2-12-5-9-14(16)10-6-12/h3-10H,15-16H2",WAUKJWLKPXRNKT-UHFFFAOYSA-N,Nc1ccc(cc1)C#Cc2ccc(N)cc2,-2.4326,0.0,1,G1
B-2205,"benzoic acid, 2-(2-hydroxybenzoyl)-","InChI=1S/C14H10O4/c15-12-8-4-3-7-11(12)13(16)9-5-1-2-6-10(9)14(17)18/h1-8,15H,(H,17,18)",HNRPIUDTZLIYEC-UHFFFAOYSA-N,OC(=O)c1ccccc1C(=O)c2ccccc2O,-2.3428,0.0,1,G1
B-2206,"phthalic acid, bis(2,2,2-trinitroethyl) ester","InChI=1S/C12H8N6O16/c19-9(33-5-11(13(21)22,14(23)24)15(25)26)7-3-1-2-4-8(7)10(20)34-6-12(16(27)28,17(29)30)18(31)32/h1-4H,5-6H2",KPHWKKRARXZEEU-UHFFFAOYSA-N,[O-][N+](=O)C(COC(=O)c1ccccc1C(=O)OCC([N+]([O-])=O)([N+]([O-])=O)[N+]([O-])=O)([N+]([O-])=O)[N+]([O-])=O,-3.5782,0.0,1,G1
B-2207,"2-butanol, 1,1,1-trichloro-","InChI=1S/C4H7Cl3O/c1-2-3(8)4(5,6)7/h3,8H,2H2,1H3",MJFSFJZFTQSCGW-UHFFFAOYSA-N,CCC(O)C(Cl)(Cl)Cl,-0.9481,0.0,1,G1
B-2209,"1,3-dioxolane, 2-(2-methylpropyl)-","InChI=1S/C7H14O2/c1-6(2)5-7-8-3-4-9-7/h6-7H,3-5H2,1-2H3",NLSSIIZCHYEPNV-UHFFFAOYSA-N,CC(C)CC1OCCO1,-0.3695,0.0,1,G1
B-2210,"2(1h)-azecinone, octahydro-","InChI=1S/C9H17NO/c11-9-7-5-3-1-2-4-6-8-10-9/h1-8H2,(H,10,11)",KBLFLMTZLPQGIF-UHFFFAOYSA-N,O=C1CCCCCCCCN1,-1.0737,0.0,1,G1
B-2211,"methanamine, n-chloro-","InChI=1S/CH4ClN/c1-3-2/h3H,1H3",QXJIABOUHLYVHP-UHFFFAOYSA-N,CNCl,0.2806,0.0,1,G1
B-2214,"propanoic acid, 2,3-dimercapto-","InChI=1S/C3H6O2S2/c4-3(5)2(7)1-6/h2,6-7H,1H2,(H,4,5)",AIVVKKOTAISCNQ-UHFFFAOYSA-N,OC(=O)C(S)CS,-0.2374,0.0,1,G1
B-2216,"2h-azepin-2-one, 1-benzoylhexahydro-","InChI=1S/C13H15NO2/c15-12-9-5-2-6-10-14(12)13(16)11-7-3-1-4-8-11/h1,3-4,7-8H,2,5-6,9-10H2",FEFQUIPMKBPKAR-UHFFFAOYSA-N,O=C1CCCCCN1C(=O)c2ccccc2,-2.1667,0.0,1,G1
B-2217,c.i. disperse orange 13,"InChI=1S/C22H16N4O/c27-18-12-10-17(11-13-18)24-26-22-15-14-21(19-8-4-5-9-20(19)22)25-23-16-6-2-1-3-7-16/h1-15,26H",OYLYPSTUVSONQA-UHFFFAOYSA-N,O=C1C=CC(C=C1)=NNc2ccc(N=Nc3ccccc3)c4ccccc24,-6.0092,0.0,1,G1
B-2218,"2-bornanecarboxylic acid, 2-amino-","InChI=1S/C11H19NO2/c1-9(2)7-4-5-10(9,3)11(12,6-7)8(13)14/h7H,4-6,12H2,1-3H3,(H,13,14)",JZJKRUCQCUXZTD-UHFFFAOYSA-N,CC1(C)C2CCC1(C)C(N)(C2)C(O)=O,-1.5961,0.0,1,G1