ID,Name,InChI,InChIKey,SMILES,Solubility,SD,Occurrences,Group
B-967,"benzenesulfonamide, n,n-dichloro-4-methyl-","InChI=1S/C7H7Cl2NO2S/c1-6-2-4-7(5-3-6)13(11,12)10(8)9/h2-5H,1H3",ARGDYOIRHYLIMT-UHFFFAOYSA-N,Cc1ccc(cc1)[S](=O)(=O)N(Cl)Cl,-3.466,0.0,1,G1
B-968,"cyclobutaneacetic acid, 3-acetyl-2,2-dimethyl-","InChI=1S/C10H16O3/c1-6(11)8-4-7(5-9(12)13)10(8,2)3/h7-8H,4-5H2,1-3H3,(H,12,13)",SIZDUQQDBXJXLQ-UHFFFAOYSA-N,CC(=O)C1CC(CC(O)=O)C1(C)C,-0.5752,0.0,1,G1
B-972,glycocholic acid,"InChI=1S/C26H43NO6/c1-14(4-7-22(31)27-13-23(32)33)17-5-6-18-24-19(12-21(30)26(17,18)3)25(2)9-8-16(28)10-15(25)11-20(24)29/h14-21,24,28-30H,4-13H2,1-3H3,(H,27,31)(H,32,33)/t14-,15+,16-,17-,18+,19+,20-,21+,24+,25+,26-/m1/s1",RFDAIACWWDREDC-FRVQLJSFSA-N,C[C@H](CCC(=O)NCC(O)=O)[C@H]1CC[C@H]2[C@@H]3[C@H](O)C[C@@H]4C[C@H](O)CC[C@]4(C)[C@H]3C[C@H](O)[C@]12C,-5.1495,0.0,1,G1
B-974,safranine t,"InChI=1S/C20H18N4.ClH/c1-12-10-17-19(11-16(12)22)24(14-6-4-3-5-7-14)18-9-8-15(21)13(2)20(18)23-17;/h3-11,22H,21H2,1-2H3;1H",QRYAEWIQIBAZOJ-UHFFFAOYSA-N,[Cl-].Cc1cc2nc3c(C)c(N)ccc3[n+](c4ccccc4)c2cc1N,-0.8462,0.0,1,G1
B-978,tetryl,"InChI=1S/C7H5N5O8/c1-8(12(19)20)7-5(10(15)16)2-4(9(13)14)3-6(7)11(17)18/h2-3H,1H3",AGUIVNYEYSCPNI-UHFFFAOYSA-N,CN(c1c(cc(cc1[N+]([O-])=O)[N+]([O-])=O)[N+]([O-])=O)[N+]([O-])=O,-3.5889,0.0,1,G1
B-982,"benzoic acid, 2,6-dihydroxy-4-methyl-","InChI=1S/C8H8O4/c1-4-2-5(9)7(8(11)12)6(10)3-4/h2-3,9-10H,1H3,(H,11,12)",YBZAVRDNSPUMFK-UHFFFAOYSA-N,Cc1cc(O)c(C(O)=O)c(O)c1,-2.0496,0.0,1,G1
B-987,fervenulin,"InChI=1S/C7H7N5O2/c1-11-5-4(8-3-9-10-5)6(13)12(2)7(11)14/h3H,1-2H3",RRTKVYSLIGQWCO-UHFFFAOYSA-N,CN1C(=O)N(C)c2nncnc2C1=O,-1.9849,0.0,1,G1
B-990,iridomyrmecin,"InChI=1S/C10H16O2/c1-6-3-4-8-7(2)10(11)12-5-9(6)8/h6-9H,3-5H2,1-2H3",LYEFRAMOOLOUKA-UHFFFAOYSA-N,CC1CCC2C(C)C(=O)OCC12,-1.9249,0.0,1,G1
B-992,"pyrrolo[2,1-b]quinazolin-9(1h)-one,2,3-dihydro-3","InChI=1S/C11H10N2O2/c14-9-5-6-13-10(9)12-8-4-2-1-3-7(8)11(13)15/h1-4,9,14H,5-6H2/t9-/m0/s1",SDIVYZXRQHWCKF-VIFPVBQESA-N,O[C@H]1CCN2C(=O)c3ccccc3N=C12,-2.106,0.0,1,G1
B-993,caulophylline,"InChI=1S/C12H16N2O/c1-13-6-9-5-10(8-13)11-3-2-4-12(15)14(11)7-9/h2-4,9-10H,5-8H2,1H3/t9-,10-/m0/s1",CULUKMPMGVXCEI-UWVGGRQHSA-N,CN1C[C@@H]2C[C@@H](C1)C3=CC=CC(=O)N3C2,0.6484,0.0,1,G1
B-997,"azulene, 1,4-dimethyl-7-(1-methylethyl)-","InChI=1S/C15H18/c1-10(2)13-7-5-11(3)14-8-6-12(4)15(14)9-13/h5-10H,1-4H3",FWKQNCXZGNBPFD-UHFFFAOYSA-N,CC(C)c1ccc(C)c2ccc(C)c2c1,-5.4752,0.0,1,G1
B-999,1(2h)-isoquinolinone,"InChI=1S/C9H7NO/c11-9-8-4-2-1-3-7(8)5-6-10-9/h1-6H,(H,10,11)",VDBNYAPERZTOOF-UHFFFAOYSA-N,O=C1NC=Cc2ccccc12,-2.4842,0.0,1,G1
B-1000,chrysarobin,"InChI=1S/C15H12O3/c1-8-5-10-7-9-3-2-4-11(16)13(9)15(18)14(10)12(17)6-8/h2-7,16-18H,1H3",JBGKVNQFVAJOGC-UHFFFAOYSA-N,Cc1cc(O)c2c(O)c3c(O)cccc3cc2c1,-3.0585,0.0,1,G1
B-1003,2-amino-1-phenyl-propan-1-ol,"InChI=1S/C9H13NO/c1-7(10)9(11)8-5-3-2-4-6-8/h2-7,9,11H,10H2,1H3/t7-,9+/m0/s1",DLNKOYKMWOXYQA-IONNQARKSA-N,C[C@H](N)[C@@H](O)c1ccccc1,-0.8786,0.0,1,G1
B-1005,"1,3-cyclohexanedione, 5-phenyl-","InChI=1S/C12H12O2/c13-11-6-10(7-12(14)8-11)9-4-2-1-3-5-9/h1-5,8,10,13H,6-7H2/t10-/m1/s1",ZFVDSCASCRHXCP-SNVBAGLBSA-N,OC1=CC(=O)C[C@@H](C1)c2ccccc2,-2.5113,0.0,1,G1
B-1007,gentisyl alcohol,"InChI=1S/C7H8O3/c8-4-5-3-6(9)1-2-7(5)10/h1-3,8-10H,4H2",PUZSUVGRVHEUQO-UHFFFAOYSA-N,OCc1cc(O)ccc1O,0.8534,0.0,1,G1
B-1008,bayer 15080,"InChI=1S/C13H11N3O2/c17-13(10-4-2-1-3-5-10)15-14-11-6-8-12(16-18)9-7-11/h1-9,14H,(H,15,17)",ORLIFVYIUIQGOA-UHFFFAOYSA-N,O=Nc1ccc(NNC(=O)c2ccccc2)cc1,-4.6835,0.0,1,G1
B-1011,"2-butenal, 2-methyl-, (e)-","InChI=1S/C5H8O/c1-3-5(2)4-6/h3-4H,1-2H3/b5-3+",ACWQBUSCFPJUPN-HWKANZROSA-N,C\C=C(/C)C=O,-0.527,0.0,1,G1
B-1012,"1,3-dioxolane, 2-methyl-","InChI=1S/C4H8O2/c1-4-5-2-3-6-4/h4H,2-3H2,1H3",HTWIZMNMTWYQRN-UHFFFAOYSA-N,CC1OCCO1,0.8789,0.0,1,G1
B-1013,norcamphor,"InChI=1S/C7H10O/c8-7-4-5-1-2-6(7)3-5/h5-6H,1-4H2",KPMKEVXVVHNIEY-UHFFFAOYSA-N,O=C1CC2CCC1C2,-1.7565,0.0,1,G1
B-1014,"3-hydroxy-4-oxo-4h-pyran-2,6-dicarboxylic acid","InChI=1S/C7H4O7/c8-2-1-3(6(10)11)14-5(4(2)9)7(12)13/h1,12-13H,(H,10,11)",SELRUPTWVICDPZ-UHFFFAOYSA-N,OC(O)=C1OC(=CC(=O)C1=O)C(O)=O,-1.3769999999999998,0.0,1,G1
B-1015,"ethanone, 1-(4-hydroxy-3-methoxyphenyl)-","InChI=1S/C9H10O3/c1-6(10)7-3-4-8(11)9(5-7)12-2/h3-5,11H,1-2H3",DFYRUELUNQRZTB-UHFFFAOYSA-N,COc1cc(ccc1O)C(C)=O,-1.5216,0.0,1,G1
B-1016,norvaline,"InChI=1S/C5H11NO2/c1-2-3-4(6)5(7)8/h4H,2-3,6H2,1H3,(H,7,8)/t4-/m1/s1",SNDPXSYFESPGGJ-SCSAIBSYSA-N,CCC[C@@H](N)C(O)=O,-0.0687,0.0,1,G1
B-1019,beta-eucaine,"InChI=1S/C15H21NO2/c1-11-9-13(10-15(2,3)16-11)18-14(17)12-7-5-4-6-8-12/h4-8,11,13,16H,9-10H2,1-3H3",ZYHGIAPHLSTGMX-UHFFFAOYSA-N,CC1CC(CC(C)(C)N1)OC(=O)c2ccccc2,-1.922,0.0,1,G1
B-1020,"acetic acid, oxo(phenylamino)-","InChI=1S/C8H7NO3/c10-7(8(11)12)9-6-4-2-1-3-5-6/h1-5H,(H,9,10)(H,11,12)",PQJZHMCWDKOPQG-UHFFFAOYSA-N,OC(=O)C(=O)Nc1ccccc1,-1.3019,0.0,1,G1
B-1022,"2-butenoic acid, 4-[(aminocarbonyl)amino]-4-oxo-","InChI=1S/C5H6N2O4/c6-5(11)7-3(8)1-2-4(9)10/h1-2H,(H,9,10)(H3,6,7,8,11)",GWGLGTKSTGSWGQ-UHFFFAOYSA-N,NC(=O)NC(=O)C=CC(O)=O,-1.9202,0.0,1,G1
B-1023,bis(ethylxanthogen),"InChI=1S/C6H10O2S4/c1-3-7-5(9)11-12-6(10)8-4-2/h3-4H2,1-2H3",FVIGODVHAVLZOO-UHFFFAOYSA-N,CCOC(=S)SSC(=S)OCC,-4.9432,0.0,1,G1
B-1025,trimethyleneoxide,InChI=1S/C3H6O/c1-2-4-3-1/h1-3H2,AHHWIHXENZJRFG-UHFFFAOYSA-N,C1COC1,1.236,0.0,1,G1
B-1027,(z)-2-butenoic acid (isocrotonic acid),"InChI=1S/C4H6O2/c1-2-3-4(5)6/h2-3H,1H3,(H,5,6)/b3-2-",LDHQCZJRKDOVOX-IHWYPQMZSA-N,C\C=C/C(O)=O,1.065,0.0,1,G1
B-1029,4-aminopyridine,"InChI=1S/C5H6N2/c6-5-1-3-7-4-2-5/h1-4H,(H2,6,7)",NUKYPUAOHBNCPY-UHFFFAOYSA-N,Nc1ccncc1,-0.0529,0.0,1,G1
B-1031,"1,4-dithiane",InChI=1S/C4H8S2/c1-2-6-4-3-5-1/h1-4H2,LOZWAPSEEHRYPG-UHFFFAOYSA-N,C1CSCCS1,-1.6029,0.0,1,G1
B-1036,iodine cyanide,InChI=1S/CIN/c2-1-3,WPBXOELOQKLBDF-UHFFFAOYSA-N,IC#N,-0.6333,0.0,1,G1
B-1041,tetranitromethane,"InChI=1S/CN4O8/c6-2(7)1(3(8)9,4(10)11)5(12)13",NYTOUQBROMCLBJ-UHFFFAOYSA-N,[O-][N+](=O)C([N+]([O-])=O)([N+]([O-])=O)[N+]([O-])=O,-2.3381,0.0,1,G1
B-1042,pholcodine,"InChI=1S/C23H30N2O4/c1-24-7-6-23-16-3-4-18(26)22(23)29-21-19(5-2-15(20(21)23)14-17(16)24)28-13-10-25-8-11-27-12-9-25/h2-5,16-18,22,26H,6-14H2,1H3/t16?,17-,18+,22+,23+/m1/s1",GPFAJKDEDBRFOS-SLITUTQKSA-N,CN1CC[C@]23[C@H]4Oc5c(OCCN6CCOCC6)ccc(C[C@@H]1C2C=C[C@@H]4O)c35,-1.2994,0.0,1,G1
B-1043,"2,4,6(1h,3h,5h)-pyrimidinetrione, 5-ethyl-5-(1-p","InChI=1S/C11H17N3O3/c1-2-11(14-6-4-3-5-7-14)8(15)12-10(17)13-9(11)16/h2-7H2,1H3,(H2,12,13,15,16,17)",ZFVLHMJCLWOOOY-UHFFFAOYSA-N,CCC1(N2CCCCC2)C(=O)NC(=O)NC1=O,-2.1562,0.0,1,G1
B-1046,raffinose,"InChI=1S/C18H32O16/c19-1-5-8(22)11(25)13(27)16(31-5)30-3-7-9(23)12(26)14(28)17(32-7)34-18(4-21)15(29)10(24)6(2-20)33-18/h5-17,19-29H,1-4H2/t5-,6-,7-,8+,9-,10-,11+,12+,13-,14-,15+,16+,17-,18+/m1/s1",MUPFEKGTMRGPLJ-ZQSKZDJDSA-N,OC[C@H]1O[C@H](OC[C@H]2O[C@H](O[C@]3(CO)O[C@H](CO)[C@@H](O)[C@@H]3O)[C@H](O)[C@@H](O)[C@@H]2O)[C@H](O)[C@@H](O)[C@H]1O,-0.3962,0.0,1,G1
B-1047,tripropyl phosphate,"InChI=1S/C9H21O4P/c1-4-7-11-14(10,12-8-5-2)13-9-6-3/h4-9H2,1-3H3",RXPQRKFMDQNODS-UHFFFAOYSA-N,CCCO[P](=O)(OCCC)OCCC,-1.5412,0.0,1,G1
B-1049,1-chloro-2-methylpropene,"InChI=1S/C4H7Cl/c1-4(2)3-5/h3H,1-2H3",KWISWUFGPUHDRY-UHFFFAOYSA-N,CC(C)=CCl,-1.9569,0.0,1,G1
B-1050,methallyl alcohol,"InChI=1S/C4H8O/c1-4(2)3-5/h5H,1,3H2,2H3",BYDRTKVGBRTTIT-UHFFFAOYSA-N,CC(=C)CO,0.4298,0.0,1,G1
B-1051,2-butanethiol,"InChI=1S/C4H10S/c1-3-4(2)5/h4-5H,3H2,1-2H3",LOCHFZBWPCLPAN-UHFFFAOYSA-N,CCC(C)S,-1.8346,0.0,1,G1
B-1054,acetoin,"InChI=1S/C4H8O2/c1-3(5)4(2)6/h3,5H,1-2H3",ROWKJAVDOGWPAT-UHFFFAOYSA-N,CC(O)C(C)=O,1.055,0.0,1,G1
B-1055,abietic acid,"InChI=1S/C20H30O2/c1-13(2)14-6-8-16-15(12-14)7-9-17-19(16,3)10-5-11-20(17,4)18(21)22/h7,12-13,16-17H,5-6,8-11H2,1-4H3,(H,21,22)/t16-,17+,19+,20+/m0/s1",RSWGJHLUYNHPMX-ONCXSQPRSA-N,CC(C)C1=CC2=CC[C@@H]3[C@](C)(CCC[C@@]3(C)C(O)=O)[C@H]2CC1,-3.7959,0.0,1,G1
B-1057,"benzeneacetic acid, .alpha.-hydroxy-.alpha.-meth","InChI=1S/C9H10O3/c1-9(12,8(10)11)7-5-3-2-4-6-7/h2-6,12H,1H3,(H,10,11)",NWCHELUCVWSRRS-UHFFFAOYSA-N,CC(O)(C(O)=O)c1ccccc1,-0.8949,0.0,1,G1
B-1061,dl-valine,"InChI=1S/C5H11NO2/c1-3(2)4(6)5(7)8/h3-4H,6H2,1-2H3,(H,7,8)",KZSNJWFQEVHDMF-UHFFFAOYSA-N,CC(C)C(N)C(O)=O,-0.1971,0.051449999999999996,2,G3
B-1065,fluorescein,"InChI=1S/C20H12O5/c21-11-5-7-15-17(9-11)24-18-10-12(22)6-8-16(18)20(15)14-4-2-1-3-13(14)19(23)25-20/h1-10,21-22H",GNBHRKFJIUUOQI-UHFFFAOYSA-N,Oc1ccc2c(Oc3cc(O)ccc3C24OC(=O)c5ccccc45)c1,-3.8226,0.7463,2,G2
B-1067,dioxypyramidon,"InChI=1S/C13H17N3O3/c1-10(17)15(4)16(11-8-6-5-7-9-11)13(19)12(18)14(2)3/h5-9H,1-4H3",IRTZMJWVZQYURE-UHFFFAOYSA-N,CN(C)C(=O)C(=O)N(N(C)C(C)=O)c1ccccc1,-0.5345,0.0,1,G1
B-1068,"androstan-3-one, 17-hydroxy-, (5alpha,17beta)-","InChI=1S/C19H30O2/c1-18-9-7-13(20)11-12(18)3-4-14-15-5-6-17(21)19(15,2)10-8-16(14)18/h12,14-17,21H,3-11H2,1-2H3/t12-,14-,15-,16-,17-,18-,19-/m0/s1",NVKAWKQGWWIWPM-ABEVXSGRSA-N,C[C@]12CC[C@H]3[C@@H](CC[C@H]4CC(=O)CC[C@]34C)[C@@H]1CC[C@@H]2O,0.2571,0.0,1,G1
B-1069,"8-quinolinol, 5,7-dibromo-","InChI=1S/C9H5Br2NO/c10-6-4-7(11)9(13)8-5(6)2-1-3-12-8/h1-4,13H",ZDASUJMDVPTNTF-UHFFFAOYSA-N,Oc1c(Br)cc(Br)c2cccnc12,-4.1938,0.0,1,G1
B-1070,hydroquinine,"InChI=1S/C20H26N2O2/c1-3-13-12-22-9-7-14(13)10-19(22)20(23)16-6-8-21-18-5-4-15(24-2)11-17(16)18/h4-6,8,11,13-14,19-20,23H,3,7,9-10,12H2,1-2H3",LJOQGZACKSYWCH-UHFFFAOYSA-N,CCC1CN2CCC1CC2C(O)c3ccnc4ccc(OC)cc34,-3.0514,0.0,1,G1
B-1071,"1,6-naphthalenedisulfonic acid","InChI=1S/C10H8O6S2/c11-17(12,13)8-4-5-9-7(6-8)2-1-3-10(9)18(14,15)16/h1-6H,(H,11,12,13)(H,14,15,16)",HEWDOWUUTBCVJP-UHFFFAOYSA-N,O[S](=O)(=O)c1ccc2c(cccc2[S](O)(=O)=O)c1,0.5402,0.0,1,G1
B-1073,tryptazan,"InChI=1S/C10H11N3O2/c11-7(10(14)15)5-9-6-3-1-2-4-8(6)12-13-9/h1-4,7H,5,11H2,(H,12,13)(H,14,15)",IFEKQNAXDMZERW-UHFFFAOYSA-N,NC(Cc1[nH]nc2ccccc12)C(O)=O,-1.4091,0.0,1,G1
B-1076,allaric acid,"InChI=1S/C6H10O8/c7-1(3(9)5(11)12)2(8)4(10)6(13)14/h1-4,7-10H,(H,11,12)(H,13,14)/t1-,2+,3-,4+",DSLZVSRJTYRBFB-GNSDDBTRSA-N,O[C@H]([C@H](O)[C@H](O)C(O)=O)[C@@H](O)C(O)=O,-0.3225,0.0,1,G1
B-1077,sodium gluconate,"InChI=1S/C6H12O7.Na/c7-1-2(8)3(9)4(10)5(11)6(12)13;/h2-5,7-11H,1H2,(H,12,13);/q;+1/p-1",UPMFZISCCZSDND-UHFFFAOYSA-M,[Na+].OCC(O)C(O)C(O)C(O)C([O-])=O,0.4321,0.0,1,G1
B-1078,cupric gluconate,"InChI=1S/2C6H12O7.Cu/c2*7-1-2(8)3(9)4(10)5(11)6(12)13;/h2*2-5,7-11H,1H2,(H,12,13);/q;;+2/p-2/t2*2-,3-,4+,5-;/m11./s1",OCUCCJIRFHNWBP-IYEMJOQQSA-L,[Cu++].OC[C@@H](O)[C@@H](O)[C@H](O)[C@@H](O)C([O-])=O.OC[C@@H](O)[C@@H](O)[C@H](O)[C@@H](O)C([O-])=O,-0.1798,0.0,1,G1
B-1079,thiophene-2-carboxylic acid,"InChI=1S/C5H4O2S/c6-5(7)4-2-1-3-8-4/h1-3H,(H,6,7)",QERYCTSHXKAMIS-UHFFFAOYSA-N,OC(=O)c1sccc1,-1.2327,0.0,1,G1
B-1080,1-methyl-2-isopropylbenzene,"InChI=1S/C10H14/c1-8(2)10-7-5-4-6-9(10)3/h4-8H,1-3H3",WWRCMNKATXZARA-UHFFFAOYSA-N,CC(C)c1ccccc1C,-3.7606,0.0,1,G1
B-1081,"ethanedione, bis(2-hydroxy-5-nitrophenyl)-","InChI=1S/C14H8N2O8/c17-11-3-1-7(15(21)22)5-9(11)13(19)14(20)10-6-8(16(23)24)2-4-12(10)18/h1-6,17-18H",MLHGVVVOOIXMQL-UHFFFAOYSA-N,Oc1ccc(cc1C(=O)C(=O)c2cc(ccc2O)[N+]([O-])=O)[N+]([O-])=O,-3.5214,0.0,1,G1
B-1090,"1,2-cycloheptanedione, dioxime","InChI=1S/C7H12N2O2/c10-8-6-4-2-1-3-5-7(6)9-11/h8,10H,1-5H2",MYDALHRLYFBVMU-UHFFFAOYSA-N,ONC1=C(CCCCC1)N=O,-1.4249,0.0,1,G1
B-1091,"2h-1-benzopyran-2-one, 7-methoxy-","InChI=1S/C10H8O3/c1-12-8-4-2-7-3-5-10(11)13-9(7)6-8/h2-6H,1H3",LIIALPBMIOVAHH-UHFFFAOYSA-N,COc1ccc2C=CC(=O)Oc2c1,-3.1221,0.0,1,G1
B-1093,"benzoic acid, sodium salt","InChI=1S/C7H6O2.Na/c8-7(9)6-4-2-1-3-5-6;/h1-5H,(H,8,9);/q;+1/p-1",WXMKPNITSTVMEF-UHFFFAOYSA-M,[Na+].[O-]C(=O)c1ccccc1,0.5864,0.0,1,G1
B-1094,c.i. basic orange 2,"InChI=1S/C12H12N4.ClH/c13-9-6-7-12(11(14)8-9)16-15-10-4-2-1-3-5-10;/h1-8H,13-14H2;1H",MCTQNEBFZMBRSQ-UHFFFAOYSA-N,[H+].[Cl-].Nc1ccc(N=Nc2ccccc2)c(N)c1,-4.0947,0.0,1,G1
B-1095,"2,4-d, ethyl ester","InChI=1S/C10H10Cl2O3/c1-2-14-10(13)6-15-9-4-3-7(11)5-8(9)12/h3-5H,2,6H2,1H3",JSLBZIVMVVHMDJ-UHFFFAOYSA-N,CCOC(=O)COc1ccc(Cl)cc1Cl,-3.3503,0.0,1,G1
B-1098,dmtt (dazomet),"InChI=1S/C5H10N2S2/c1-6-3-7(2)5(8)9-4-6/h3-4H2,1-2H3",QAYICIQNSGETAS-UHFFFAOYSA-N,CN1CSC(=S)N(C)C1,-1.7331,0.1984499999999999,2,G3
B-1100,"n,n-dimethylthiourea","InChI=1S/C3H8N2S/c1-4-3(6)5-2/h1-2H3,(H2,4,5,6)",VLCDUOXHFNUCKK-UHFFFAOYSA-N,CNC(=S)NC,0.9823,0.0,1,G1
B-1101,"1,1-dimethoxyethane","InChI=1S/C4H10O2/c1-4(5-2)6-3/h4H,1-3H3",SPEUIVXLLWOEMJ-UHFFFAOYSA-N,COC(C)OC,1.0452,0.0,1,G1
B-1103,m-cymene,"InChI=1S/C10H14/c1-8(2)10-6-4-5-9(3)7-10/h4-8H,1-3H3",XCYJPXQACVEIOS-UHFFFAOYSA-N,CC(C)c1cccc(C)c1,-3.4994,0.0,1,G1
B-1105,digallic acid,"InChI=1S/C14H10O9/c15-7-2-6(3-8(16)11(7)18)14(22)23-10-4-5(13(20)21)1-9(17)12(10)19/h1-4,15-19H,(H,20,21)",COVFEVWNJUOYRL-UHFFFAOYSA-N,OC(=O)c1cc(O)c(O)c(OC(=O)c2cc(O)c(O)c(O)c2)c1,-2.8092,0.009600000000000053,2,G3
B-1106,4-ethylpyridine,"InChI=1S/C7H9N/c1-2-7-3-5-8-6-4-7/h3-6H,2H2,1H3",VJXRKZJMGVSXPX-UHFFFAOYSA-N,CCc1ccncc1,-0.0006,0.41380000000000006,2,G3
B-1108,"2,6-dibromoquinonechloroimide",InChI=1S/C6H2Br2ClNO/c7-4-1-3(10-9)2-5(8)6(4)11/h1-2H,JYWKEVKEKOTYEX-UHFFFAOYSA-N,ClN=C1C=C(Br)C(=O)C(=C1)Br,-3.7068,0.0,1,G1
B-1109,"l-tyrosine, n-methyl-","InChI=1S/C10H13NO3/c1-11-9(10(13)14)6-7-2-4-8(12)5-3-7/h2-5,9,11-12H,6H2,1H3,(H,13,14)/t9-/m0/s1",AXDLCFOOGCNDST-VIFPVBQESA-N,CN[C@@H](Cc1ccc(O)cc1)C(O)=O,-2.1325,0.0,1,G1
B-1110,bis(2-chloroethyl)ethylamine,"InChI=1S/C6H13Cl2N/c1-2-9(5-3-7)6-4-8/h2-6H2,1H3",UQZPGHOJMQTOHB-UHFFFAOYSA-N,CCN(CCCl)CCCl,-3.0265,0.0,1,G1
B-1111,butyl cinnamate,"InChI=1S/C13H16O2/c1-2-3-11-15-13(14)10-9-12-7-5-4-6-8-12/h4-10H,2-3,11H2,1H3/b10-9+",OHHIVLJVBNCSHV-MDZDMXLPSA-N,CCCCOC(=O)/C=C/c1ccccc1,-1.6112,0.0,1,G1
B-1112,benzyl methyl ether,"InChI=1S/C8H10O/c1-9-7-8-5-3-2-4-6-8/h2-6H,7H2,1H3",GQKZBCPTCWJTAS-UHFFFAOYSA-N,COCc1ccccc1,-1.6098,0.0,1,G1
B-1113,c.i. disperse black 3,"InChI=1S/C14H16N4/c1-18(2)14-9-7-13(8-10-14)17-16-12-5-3-11(15)4-6-12/h3-10H,15H2,1-2H3",BVRIUXYMUSKBHG-UHFFFAOYSA-N,CN(C)c1ccc(cc1)N=Nc2ccc(N)cc2,-4.593999999999999,0.0,1,G1
B-1117,2-methylpropyl propanoate,"InChI=1S/C7H14O2/c1-4-7(8)9-5-6(2)3/h6H,4-5H2,1-3H3",FZXRXKLUIMKDEL-UHFFFAOYSA-N,CCC(=O)OCC(C)C,-1.8841,0.0,1,G1
B-1118,"cyclopropane, methoxy-","InChI=1S/C4H8O/c1-5-4-2-3-4/h4H,2-3H2,1H3",ZUVAACFIEPYYOP-UHFFFAOYSA-N,COC1CC1,-0.1176,0.0,1,G1
B-1119,"1,2-ethylene dibromide",InChI=1S/C2H2Br2/c3-1-2-4/h1-2H/b2-1-,UWTUEMKLYAGTNQ-UPHRSURJSA-N,Br\C=C/Br,-1.3195,0.0,1,G1
B-1121,ethyl methyl ether,"InChI=1S/C3H8O/c1-3-4-2/h3H2,1-2H3",XOBKSJJDNFUZPF-UHFFFAOYSA-N,CCOC,-0.0799,0.0,1,G1
B-1122,"1,2-dimethylhydrazine","InChI=1S/C2H8N2/c1-3-4-2/h3-4H,1-2H3",DIIIISSCIXVANO-UHFFFAOYSA-N,CNNC,1.2211,0.0,1,G1
B-1123,"2,2,4-trimethylpentane","InChI=1S/C8H18/c1-7(2)6-8(3,4)5/h7H,6H2,1-5H3",NHTMVDHEPJAVLT-UHFFFAOYSA-N,CC(C)CC(C)(C)C,-4.6704,0.03780000000000028,2,G3
B-1125,dodecamethylcyclohexasiloxane,"InChI=1S/C12H36O6Si6/c1-19(2)13-20(3,4)15-22(7,8)17-24(11,12)18-23(9,10)16-21(5,6)14-19/h1-12H3",IUMSDRXLFWAGNT-UHFFFAOYSA-N,C[Si]1(C)O[Si](C)(C)O[Si](C)(C)O[Si](C)(C)O[Si](C)(C)O[Si](C)(C)O1,-7.9407,0.0,1,G1
B-1126,decamethylcyclopentasiloxane,"InChI=1S/C10H30O5Si5/c1-16(2)11-17(3,4)13-19(7,8)15-20(9,10)14-18(5,6)12-16/h1-10H3",XMSXQFUHVRWGNA-UHFFFAOYSA-N,C[Si]1(C)O[Si](C)(C)O[Si](C)(C)O[Si](C)(C)O[Si](C)(C)O1,-7.3387,0.0,1,G1
B-1127,dichloro(2-chlorovinyl)arsine (trans),InChI=1S/C2H2AsCl3/c4-2-1-3(5)6/h1-2H/b2-1+,GIKLTQKNOXNBNY-OWOJBTEDSA-N,Cl/C=C/[As](Cl)Cl,-2.6177,0.0,1,G1
B-1129,barium formate,"InChI=1S/2CH2O2.Ba/c2*2-1-3;/h2*1H,(H,2,3);/q;;+2/p-2",UXFOSWFWQAUFFZ-UHFFFAOYSA-L,[Ba++].[O-]C=O.[O-]C=O,-0.0557,0.0,1,G1
B-1131,acetoacetic acid,"InChI=1S/C4H6O3/c1-3(5)2-4(6)7/h2H2,1H3,(H,6,7)",WDJHALXBUFZDSR-UHFFFAOYSA-N,CC(=O)CC(O)=O,0.991,0.0,1,G1
B-1132,thioimidodicarbonic diamide,"InChI=1S/C2H5N3S2/c3-1(6)5-2(4)7/h(H5,3,4,5,6,7)",JIRRNZWTWJGJCT-UHFFFAOYSA-N,NC(=S)NC(N)=S,-1.6996,0.0,1,G1
B-1133,"2h-pyran-2,4(3h)-dione, 6-methyl-","InChI=1S/C6H6O3/c1-4-2-5(7)3-6(8)9-4/h2H,3H2,1H3",GYHBVAHWGBJKHA-UHFFFAOYSA-N,CC1=CC(=O)CC(=O)O1,-1.1185,0.0,1,G1
B-1134,chlorocyclohexane,"InChI=1S/C6H11Cl/c7-6-4-2-1-3-5-6/h6H,1-5H2",UNFUYWDGSFDHCW-UHFFFAOYSA-N,ClC1CCCCC1,-2.3752,0.0,1,G1
B-1139,bis(chloromethyl) ether,InChI=1S/C2H4Cl2O/c3-1-5-2-4/h1-2H2,HRQGCQVOJVTVLU-UHFFFAOYSA-N,ClCOCCl,-0.7181,0.0,1,G1
B-1140,cyclopentadiene,"InChI=1S/C5H6/c1-2-4-5-3-1/h1-4H,5H2",ZSWFCLXCOIISFI-UHFFFAOYSA-N,C1C=CC=C1,-1.565,0.0,1,G1
B-1141,"ethanesulfonic acid, 2-[(aminoiminomethyl)amino]","InChI=1S/C3H9N3O3S/c4-3(5)6-1-2-10(7,8)9/h1-2H2,(H4,4,5,6)(H,7,8,9)",JKLRIMRKZBSSED-UHFFFAOYSA-N,NC(N)=NCC[S](O)(=O)=O,-0.6321,0.0,1,G1
B-1142,isobutyl nitrate,"InChI=1S/C4H9NO3/c1-4(2)3-8-5(6)7/h4H,3H2,1-2H3",LNNXFUZKZLXPOF-UHFFFAOYSA-N,CC(C)CO[N+]([O-])=O,-1.9521,0.0,1,G1
B-1144,barium acetate,"InChI=1S/2C2H4O2.Ba/c2*1-2(3)4;/h2*1H3,(H,3,4);/q;;+2/p-2",ITHZDDVSAWDQPZ-UHFFFAOYSA-L,[Ba++].CC([O-])=O.CC([O-])=O,0.1948,0.0,1,G1
B-1145,n-methyl butylcarbamate,"InChI=1S/C6H13NO2/c1-5(2)3-4-9-6(7)8/h5H,3-4H2,1-2H3,(H2,7,8)",OLCIOXGQTLVZQT-UHFFFAOYSA-N,CC(C)CCOC(N)=O,-1.4403,0.0,1,G1
B-1146,"1-butanol, 3-methyl-, nitrate","InChI=1S/C5H11NO3/c1-5(2)3-4-9-6(7)8/h5H,3-4H2,1-2H3",NTHGIYFSMNNHSC-UHFFFAOYSA-N,CC(C)CCO[N+]([O-])=O,-2.4809,0.0,1,G1
B-1147,strontium acetate,"InChI=1S/2C2H4O2.Sr/c2*1-2(3)4;/h2*1H3,(H,3,4);/q;;+2/p-2",RXSHXLOMRZJCLB-UHFFFAOYSA-L,[Sr++].CC([O-])=O.CC([O-])=O,0.1446,0.0,1,G1
B-1151,n-hexadecane,"InChI=1S/C16H34/c1-3-5-7-9-11-13-15-16-14-12-10-8-6-4-2/h3-16H2,1-2H3",DCAYPVUWAIABOU-UHFFFAOYSA-N,CCCCCCCCCCCCCCCC,-8.4007,0.0,1,G1
B-1152,n1-(4-so2nh2-ph)sulfanilamide,"InChI=1S/C12H13N3O4S2/c13-9-1-5-12(6-2-9)21(18,19)15-10-3-7-11(8-4-10)20(14,16)17/h1-8,15H,13H2,(H2,14,16,17)",GCQZFVAHUZIDRP-UHFFFAOYSA-N,Nc1ccc(cc1)[S](=O)(=O)Nc2ccc(cc2)[S](N)(=O)=O,-2.7592,0.0,1,G1
B-1153,"2-hydroxypropanoic acid, methyl ester","InChI=1S/C4H8O3/c1-3(5)4(6)7-2/h3,5H,1-2H3",LPEKGGXMPWTOCB-UHFFFAOYSA-N,COC(=O)C(C)O,0.9825,0.0,1,G1
B-1158,quinine bisulfate,"InChI=1S/C20H24N2O2.H2O4S/c1-3-13-12-22-9-7-14(13)10-19(22)20(23)16-6-8-21-18-5-4-15(24-2)11-17(16)18;1-5(2,3)4/h3-6,8,11,13-14,19-20,23H,1,7,9-10,12H2,2H3;(H2,1,2,3,4)",AKYHKWQPZHDOBW-UHFFFAOYSA-N,COc1ccc2nccc(C(O)C3CC4CCN3CC4C=C)c2c1.O[S](O)(=O)=O,-1.5924,0.0,1,G1
B-1159,amisometradine,"InChI=1S/C9H13N3O2/c1-6(2)5-12-7(10)4-8(13)11(3)9(12)14/h4H,1,5,10H2,2-3H3",FXNYSZHYMGWWEZ-UHFFFAOYSA-N,CN1C(=O)C=C(N)N(CC(C)=C)C1=O,-0.9895,0.0,1,G1
B-1162,"2,4,6-trichloro-3-methylphenol","InChI=1S/C7H5Cl3O/c1-3-4(8)2-5(9)7(11)6(3)10/h2,11H,1H3",QTAATZDGGZYBDC-UHFFFAOYSA-N,Cc1c(Cl)cc(Cl)c(O)c1Cl,-3.2761,0.0,1,G1
B-1164,9-methyl-9-azabicyclo[3.3.1]nonan-3-one,"InChI=1S/C9H15NO/c1-10-7-3-2-4-8(10)6-9(11)5-7/h7-8H,2-6H2,1H3",RHWSKVCZXBAWLZ-UHFFFAOYSA-N,CN1C2CCCC1CC(=O)C2,0.4167,0.0,1,G1
B-1165,"3-pyridinecarboxylic acid, hydrazide","InChI=1S/C6H7N3O/c7-9-6(10)5-2-1-3-8-4-5/h1-4H,7H2,(H,9,10)",KFUSANSHCADHNJ-UHFFFAOYSA-N,NNC(=O)c1cccnc1,-0.1372,0.0,1,G1
B-1172,methyldopa,"InChI=1S/C10H13NO4/c1-10(11,9(14)15)5-6-2-3-7(12)8(13)4-6/h2-4,12-13H,5,11H2,1H3,(H,14,15)/t10-/m0/s1",CJCSPKMFHVPWAR-JTQLQIEISA-N,C[C@](N)(Cc1ccc(O)c(O)c1)C(O)=O,-1.3247,0.0,1,G1
B-1174,nifuradene,"InChI=1S/C8H8N4O4/c13-8-9-3-4-11(8)10-5-6-1-2-7(16-6)12(14)15/h1-2,5H,3-4H2,(H,9,13)/b10-5+",VSVAVMVWTLLTCH-BJMVGYQFSA-N,[O-][N+](=O)c1oc(cc1)\C=N\N2CCNC2=O,-3.3572,0.0,1,G1
B-1175,d-tyrosine,"InChI=1S/C9H11NO3/c10-8(9(12)13)5-6-1-3-7(11)4-2-6/h1-4,8,11H,5,10H2,(H,12,13)/t8-/m1/s1",OUYCCCASQSFEME-MRVPVSSYSA-N,N[C@H](Cc1ccc(O)cc1)C(O)=O,-2.6049,0.0,1,G1
B-1177,triglycine,"InChI=1S/C6H11N3O4/c7-1-4(10)8-2-5(11)9-3-6(12)13/h1-3,7H2,(H,8,10)(H,9,11)(H,12,13)",XKUKSGPZAADMRA-UHFFFAOYSA-N,NCC(=O)NCC(=O)NCC(O)=O,-0.5097,0.0,1,G1
B-1178,zinc valerate,"InChI=1S/2C5H10O2.Zn/c2*1-2-3-4-5(6)7;/h2*2-4H2,1H3,(H,6,7);/q;;+2/p-2",BUDAIZWUWHWZPQ-UHFFFAOYSA-L,[Zn++].CCCCC([O-])=O.CCCCC([O-])=O,-1.2722,0.0,1,G1
B-1181,octamethyltetrasiloxane,"InChI=1S/C8H24O4Si4/c1-13(2)9-14(3,4)11-16(7,8)12-15(5,6)10-13/h1-8H3",HMMGMWAXVFQUOA-UHFFFAOYSA-N,C[Si]1(C)O[Si](C)(C)O[Si](C)(C)O[Si](C)(C)O1,-7.7732,0.0,1,G1
B-1185,1-monobutyrin,"InChI=1S/C7H14O4/c1-2-3-7(10)11-5-6(9)4-8/h6,8-9H,2-5H2,1H3",RIEABXYBQSLTFR-UHFFFAOYSA-N,CCCC(=O)OCC(O)CO,-1.335,0.0,1,G1
B-1186,zinc acetate,"InChI=1S/2C2H4O2.Zn/c2*1-2(3)4;/h2*1H3,(H,3,4);/q;;+2/p-2",DJWUNCQRNNEAKC-UHFFFAOYSA-L,[Zn++].CC([O-])=O.CC([O-])=O,0.2179,0.0,1,G1