ID,Name,InChI,InChIKey,SMILES,Solubility,SD,Occurrences,Group
C-1552,octadecane,"InChI=1S/C18H38/c1-3-5-7-9-11-13-15-17-18-16-14-12-10-8-6-4-2/h3-18H2,1-2H3",RZJRJXONCZWCBN-UHFFFAOYSA-N,CCCCCCCCCCCCCCCCCC,-7.63,0.0,1,G1
C-1554,1-heptadecanol,"InChI=1S/C17H36O/c1-2-3-4-5-6-7-8-9-10-11-12-13-14-15-16-17-18/h18H,2-17H2,1H3",GOQYKNQRPGWPLP-UHFFFAOYSA-N,CCCCCCCCCCCCCCCCCO,-7.51,0.0,1,G1
C-1555,"2-bromo-2-nitro-1,3-propanediol;  bronopol","InChI=1S/C3H6BrNO4/c4-3(1-6,2-7)5(8)9/h6-7H,1-2H2",LVDKZNITIUWNER-UHFFFAOYSA-N,OCC(Br)(CO)[N+]([O-])=O,0.1,0.0,1,G1
C-1557,1-octadecanol;  stearyl  alcohol,"InChI=1S/C18H38O/c1-2-3-4-5-6-7-8-9-10-11-12-13-14-15-16-17-18-19/h19H,2-18H2,1H3",GLDOVTGHNKAZLK-UHFFFAOYSA-N,CCCCCCCCCCCCCCCCCCO,-8.39,0.0,1,G1
C-1558,3-bromocrotonic  acid (trans);  3-bromo-(e)-2-butenoic acid,"InChI=1S/C4H5BrO2/c1-3(5)2-4(6)7/h2H,1H3,(H,6,7)/b3-2-",JFQJADVATLPJRF-IHWYPQMZSA-N,C\C(Br)=C\C(O)=O,-0.6,0.0,1,G1
C-1559,eicosane,"InChI=1S/C20H42/c1-3-5-7-9-11-13-15-17-19-20-18-16-14-12-10-8-6-4-2/h3-20H2,1-2H3",CBFCDTFDPHXCNY-UHFFFAOYSA-N,CCCCCCCCCCCCCCCCCCCC,-8.17,0.0,1,G1
C-1560,methylmalonic  acid,"InChI=1S/C4H6O4/c1-2(3(5)6)4(7)8/h2H,1H3,(H,5,6)(H,7,8)",ZIYVHBGGAOATLY-UHFFFAOYSA-N,CC(C(O)=O)C(O)=O,0.76,0.0,1,G1
C-1561,"2-bromo-2,2-diethylacetamide","InChI=1S/C6H12BrNO/c1-3-6(7,4-2)5(8)9/h3-4H2,1-2H3,(H2,8,9)",ACEYAMOAGUDVAQ-UHFFFAOYSA-N,CCC(Br)(CC)C(N)=O,-1.44,0.20119999999999993,2,G3
C-1564,dimethylglyoxime,"InChI=1S/C4H8N2O2/c1-3(5-7)4(2)6-8/h7-8H,1-2H3/b5-3-,6-4+",JGUQDUKBUKFFRO-CIIODKQPSA-N,CC(=N\O)\C(C)=N\O,-2.16,0.0,1,G1
C-1565,n-carbamoylglycine;  hydantoic  acid,"InChI=1S/C3H6N2O3/c4-3(8)5-1-2(6)7/h1H2,(H,6,7)(H3,4,5,8)",KZVRXPPUJQRGFN-UHFFFAOYSA-N,NC(=O)NCC(O)=O,-0.59,0.0,1,G1
C-1566,tridecanoic acid,"InChI=1S/C13H26O2/c1-2-3-4-5-6-7-8-9-10-11-12-13(14)15/h2-12H2,1H3,(H,14,15)",SZHOJFHSIKHZHA-UHFFFAOYSA-N,CCCCCCCCCCCCC(O)=O,-3.81,0.0,1,G1
C-1567,ethylmalonic  acid,"InChI=1S/C5H8O4/c1-2-3(4(6)7)5(8)9/h3H,2H2,1H3,(H,6,7)(H,8,9)",UKFXDFUAPNAMPJ-UHFFFAOYSA-N,CCC(C(O)=O)C(O)=O,0.73,0.0,1,G1
C-1569,"dl-methylsuccinic  acid;  dl-2-methyl-1,4-butanedioic acid","InChI=1S/C5H8O4/c1-3(5(8)9)2-4(6)7/h3H,2H2,1H3,(H,6,7)(H,8,9)",WXUAQHNMJWJLTG-UHFFFAOYSA-N,CC(CC(O)=O)C(O)=O,0.48,0.12355528677029115,3,G5
C-1570,3-iodocrotonic  acid (trans);  3-iodo-(e)-2-butenoic acid,"InChI=1S/C4H5IO2/c1-3(5)2-4(6)7/h2H,1H3,(H,6,7)/b3-2-",CSDFWNXJFJAWAM-IHWYPQMZSA-N,C\C(I)=C\C(O)=O,-1.16,0.0,1,G1
C-1572,glycylglycine,"InChI=1S/C4H8N2O3/c5-1-3(7)6-2-4(8)9/h1-2,5H2,(H,6,7)(H,8,9)",YMAWOPBAYDPSLA-UHFFFAOYSA-N,NCC(=O)NCC(O)=O,0.1,0.0,1,G1
C-1573,3-methyladipic  acid,"InChI=1S/C7H12O4/c1-5(4-7(10)11)2-3-6(8)9/h5H,2-4H2,1H3,(H,8,9)(H,10,11)",SYEOWUNSTUDKGM-UHFFFAOYSA-N,CC(CCC(O)=O)CC(O)=O,0.09,0.05,2,G3
C-1574,"5,5-dimethylcyclohexane-1,3-dione","InChI=1S/C8H12O2/c1-8(2)4-6(9)3-7(10)5-8/h3-5H2,1-2H3",BADXJIPKFRBFOT-UHFFFAOYSA-N,CC1(C)CC(=O)CC(=O)C1,-1.53,0.0,1,G1
C-1576,propylmalonic  acid,"InChI=1S/C6H10O4/c1-2-3-4(5(7)8)6(9)10/h4H,2-3H2,1H3,(H,7,8)(H,9,10)",VQDJODAWOFNASI-UHFFFAOYSA-N,CCCC(C(O)=O)C(O)=O,0.68,0.0,1,G1
C-1579,11-bromoundecanoic acid,"InChI=1S/C11H21BrO2/c12-10-8-6-4-2-1-3-5-7-9-11(13)14/h1-10H2,(H,13,14)",IUDGNRWYNOEIKF-UHFFFAOYSA-N,OC(=O)CCCCCCCCCCBr,-3.7,0.0,1,G1
C-1580,"cycluron; 3-cyclooctyl-1,1-dimethylurea","InChI=1S/C11H22N2O/c1-13(2)11(14)12-10-8-6-4-3-5-7-9-10/h10H,3-9H2,1-2H3,(H,12,14)",DQZCVNGCTZLGAQ-UHFFFAOYSA-N,CN(C)C(=O)NC1CCCCCCC1,-2.26,0.05949274465568608,3,G5
C-1581,iodoform;  triiodomethane,InChI=1S/CHI3/c2-1(3)4/h1H,OKJPEAGHQZHRQV-UHFFFAOYSA-N,IC(I)I,-3.6,0.0,1,G1
C-1582,"shikimic  acid;  1-carboxy-3,4,5-trihydroxy-1-cyclohexene","InChI=1S/C7H10O5/c8-4-1-3(7(11)12)2-5(9)6(4)10/h1,4-6,8-10H,2H2,(H,11,12)",JXOHGGNKMLTUBP-UHFFFAOYSA-N,OC1CC(=CC(O)C1O)C(O)=O,0.01,0.0375,2,G3
C-1583,cantharidin,"InChI=1S/C10H12O4/c1-9-5-3-4-6(13-5)10(9,2)8(12)14-7(9)11/h5-6H,3-4H2,1-2H3",DHZBEENLJMYSHQ-UHFFFAOYSA-N,CC12C3CCC(O3)C1(C)C(=O)OC2=O,-3.82,0.0,1,G1
C-1585,butylmalonic acid,"InChI=1S/C7H12O4/c1-2-3-4-5(6(8)9)7(10)11/h5H,2-4H2,1H3,(H,8,9)(H,10,11)",MCRZWYDXIGCFKO-UHFFFAOYSA-N,CCCCC(C(O)=O)C(O)=O,0.44,0.0,1,G1
C-1586,heptadecanoic acid;  margaric acid,"InChI=1S/C17H34O2/c1-2-3-4-5-6-7-8-9-10-11-12-13-14-15-16-17(18)19/h2-16H2,1H3,(H,18,19)",KEMQGTRYUADPNZ-UHFFFAOYSA-N,CCCCCCCCCCCCCCCCC(O)=O,-4.69,0.0,1,G1
C-1587,l(-)-chlorosuccinic  acid;  l(-)-2-chlorobutanedioic acid,"InChI=1S/C4H5ClO4/c5-2(4(8)9)1-3(6)7/h2H,1H2,(H,6,7)(H,8,9)",QEGKXSHUKXMDRW-UHFFFAOYSA-N,OC(=O)CC(Cl)C(O)=O,0.07,0.0,1,G1
C-1588,"trans, trans-muconic acid;  trans, trans-1,3-butadiene-1,4-dicarboxylic acid;  trans,trans-hexa-2,4-dienedioic acid","InChI=1S/C6H6O4/c7-5(8)3-1-2-4-6(9)10/h1-4H,(H,7,8)(H,9,10)/b3-1+,4-2+",TXXHDPDFNKHHGW-ZPUQHVIOSA-N,OC(=O)\C=C\C=C\C(O)=O,-2.85,0.0,1,G1
C-1589,"2-hydroxy-3,3,3-trichloropropanoic acid;  beta,beta,beta-trichlorolactic  acid;","InChI=1S/C3H3Cl3O3/c4-3(5,6)1(7)2(8)9/h1,7H,(H,8,9)",PBXLMODGBAXKQR-UHFFFAOYSA-N,OC(C(O)=O)C(Cl)(Cl)Cl,0.36,0.0,1,G1
C-1590,taurine;  2-aminoethanesulfonic  acid,"InChI=1S/C2H7NO3S/c3-1-2-7(4,5)6/h1-3H2,(H,4,5,6)",XOAAWQZATWQOTB-UHFFFAOYSA-N,NCC[S](O)(=O)=O,-0.19,0.0,1,G1
C-1591,"sebacic  acid;  decanedioic  acid;  1,8-octanedicarboxylic acid","InChI=1S/C10H18O4/c11-9(12)7-5-3-1-2-4-6-8-10(13)14/h1-8H2,(H,11,12)(H,13,14)",CXMXRPHRNRROMY-UHFFFAOYSA-N,OC(=O)CCCCCCCCC(O)=O,-2.31,0.0,1,G1
C-1593,succinimide,"InChI=1S/C4H5NO2/c6-3-1-2-4(7)5-3/h1-2H2,(H,5,6,7)",KZNICNPSHKQLFF-UHFFFAOYSA-N,O=C1CCC(=O)N1,0.39,0.04500000000000001,2,G3
C-1594,endo-bornyl  acetate;  endo-borneol acetate,"InChI=1S/C12H20O2/c1-8(13)14-10-7-9-5-6-12(10,4)11(9,2)3/h9-10H,5-7H2,1-4H3",KGEKLUUHTZCSIP-UHFFFAOYSA-N,CC(=O)OC1CC2CCC1(C)C2(C)C,-3.93,0.0,1,G1
C-1595,2-aminoadipic  acid;  2-aminohexanedioic acid,"InChI=1S/C6H11NO4/c7-4(6(10)11)2-1-3-5(8)9/h4H,1-3,7H2,(H,8,9)(H,10,11)",OYIFNHCXNCRBQI-UHFFFAOYSA-N,NC(CCCC(O)=O)C(O)=O,-1.87,0.0,1,G1
C-1596,4(3h)-pyrimidone,"InChI=1S/C4H4N2O/c7-4-1-2-5-3-6-4/h1-3H,(H,5,6,7)",DNCYBUMDUBHIJZ-UHFFFAOYSA-N,O=C1NC=NC=C1,0.59,0.0,1,G1
C-1597,2(1h)-pyrimidone,"InChI=1S/C4H4N2O/c7-4-5-2-1-3-6-4/h1-3H,(H,5,6,7)",VTGOHKSTWXHQJK-UHFFFAOYSA-N,O=C1NC=CC=N1,0.68,0.0,1,G1
C-1599,omega--pentadecalactone;  15-hydroxypentadecanoic acid lactone,InChI=1S/C15H28O2/c16-15-13-11-9-7-5-3-1-2-4-6-8-10-12-14-17-15/h1-14H2,FKUPPRZPSYCDRS-UHFFFAOYSA-N,O=C1CCCCCCCCCCCCCCO1,-5.34,0.0,1,G1
C-1600,"tetrachloro-1,4-benzoquinone;  para-chloranil",InChI=1S/C6Cl4O2/c7-1-2(8)6(12)4(10)3(9)5(1)11,UGNWTBMOAKPKBL-UHFFFAOYSA-N,ClC1=C(Cl)C(=O)C(=C(Cl)C1=O)Cl,-2.99,0.0,1,G1
C-1601,cycloserine;  4-aminoisoxazolidine-3-one,"InChI=1S/C3H6N2O2/c4-2-1-7-5-3(2)6/h2H,1,4H2,(H,5,6)",DYDCUQKUCUHJBH-UHFFFAOYSA-N,NC1CONC1=O,-0.01,0.0,1,G1
C-1602,dodecanedioic  acid,"InChI=1S/C12H22O4/c13-11(14)9-7-5-3-1-2-4-6-8-10-12(15)16/h1-10H2,(H,13,14)(H,15,16)",TVIDDXQYHWJXFK-UHFFFAOYSA-N,OC(=O)CCCCCCCCCCC(O)=O,-3.76,0.0,1,G1
C-1603,3-cyclohexyl-2-mercaptopropenoic  acid,"InChI=1S/C9H14O2S/c10-9(11)8(12)6-7-4-2-1-3-5-7/h6-7,12H,1-5H2,(H,10,11)/b8-6-",FSQVNBYCGIYCSF-VURMDHGXSA-N,OC(=O)/C(S)=C/C1CCCCC1,-2.67,0.0,1,G1
C-1604,"1-cyclohexene-1,4-dicarboxylic  acid","InChI=1S/C8H10O4/c9-7(10)5-1-2-6(4-3-5)8(11)12/h1,6H,2-4H2,(H,9,10)(H,11,12)",KAAQPMPUQHKLLE-UHFFFAOYSA-N,OC(=O)C1CCC(=CC1)C(O)=O,-2.93,0.0,1,G1
C-1605,"1,11-undecanedicarboxylic acid;  tridecanedioic  acid;  brassylic  acid","InChI=1S/C13H24O4/c14-12(15)10-8-6-4-2-1-3-5-7-9-11-13(16)17/h1-11H2,(H,14,15)(H,16,17)",DXNCZXXFRKPEPY-UHFFFAOYSA-N,OC(=O)CCCCCCCCCCCC(O)=O,-3.79,0.7890000000000001,2,G2
C-1608,2-methylbenzyl  alcohol,"InChI=1S/C8H10O/c1-7-4-2-3-5-8(7)6-9/h2-5,9H,6H2,1H3",XPNGNIFUDRPBFJ-UHFFFAOYSA-N,CC1=CC=CC=C1CO,-1.09,0.0,1,G1
C-1609,phosfolan,"InChI=1S/C7H14NO3PS2/c1-3-10-12(9,11-4-2)8-7-13-5-6-14-7/h3-6H2,1-2H3",ILBONRFSLATCRE-UHFFFAOYSA-N,CCO[P](=O)(OCC)N=C1SCCS1,-2.59,0.0,1,G1
C-1610,"trans-cyclohexane-1,2-dicarboxylic  acid","InChI=1S/C8H12O4/c9-7(10)5-3-1-2-4-6(5)8(11)12/h5-6H,1-4H2,(H,9,10)(H,11,12)",QSAWQNUELGIYBC-UHFFFAOYSA-N,OC(=O)C1CCCCC1C(O)=O,-1.94,0.0,1,G1
C-1612,"2,6-diaminopyridine","InChI=1S/C5H7N3/c6-4-2-1-3-5(7)8-4/h1-3H,(H4,6,7,8)",VHNQIURBCCNWDN-UHFFFAOYSA-N,NC1=NC(=CC=C1)N,-0.08,0.0,1,G1
C-1613,"2,3-diaminopyridine","InChI=1S/C5H7N3/c6-4-2-1-3-8-5(4)7/h1-3H,6H2,(H2,7,8)",ZZYXNRREDYWPLN-UHFFFAOYSA-N,NC1=CC=CN=C1N,-1.75,0.0,1,G1
C-1614,"2,4-dihydroxypyridine;  2,4-pyridinediol;  4-hydroxy-1h-pyridin-2-one","InChI=1S/C5H5NO2/c7-4-1-2-6-5(8)3-4/h1-3H,(H2,6,7,8)",ZEZJPIDPVXJEME-UHFFFAOYSA-N,OC1=CC(=O)NC=C1,-1.25,0.0,1,G1
C-1618,"4,6-dihydroxypyrimidine;  4,6-pyrimidinediol","InChI=1S/C4H4N2O2/c7-3-1-4(8)6-2-5-3/h1-2H,(H2,5,6,7,8)",DUFGYCAXVIUXIP-UHFFFAOYSA-N,OC1=CC(=NC=N1)O,-1.65,0.0,1,G1
C-1619,vinyl stearate;  octadecanoic acid vinyl ester,"InChI=1S/C20H38O2/c1-3-5-6-7-8-9-10-11-12-13-14-15-16-17-18-19-20(21)22-4-2/h4H,2-3,5-19H2,1H3",AFSIMBWBBOJPJG-UHFFFAOYSA-N,CCCCCCCCCCCCCCCCCC(=O)OC=C,-6.15,0.0,1,G1
C-1620,hexatriacontane,"InChI=1S/C36H74/c1-3-5-7-9-11-13-15-17-19-21-23-25-27-29-31-33-35-36-34-32-30-28-26-24-22-20-18-16-14-12-10-8-6-4-2/h3-36H2,1-2H3",YDLYQMBWCWFRAI-UHFFFAOYSA-N,CCCCCCCCCCCCCCCCCCCCCCCCCCCCCCCCCCCC,-8.48,0.0,1,G1
C-1622,bis-2-chloroethyl  sulfone,"InChI=1S/C4H8Cl2O2S/c5-1-3-9(7,8)4-2-6/h1-4H2",LUYAMNYBNTVQJG-UHFFFAOYSA-N,ClCC[S](=O)(=O)CCCl,-1.5,0.0,1,G1
C-1624,"2,4,5-trimethylaniline","InChI=1S/C9H13N/c1-6-4-8(3)9(10)5-7(6)2/h4-5H,10H2,1-3H3",BMIPMKQAAJKBKP-UHFFFAOYSA-N,CC1=CC(=C(N)C=C1C)C,-1.95,0.0,1,G1
C-1625,5-methyl-2-furoic  acid;  5-methylfuran-2-carboxylic acid,"InChI=1S/C6H6O3/c1-4-2-3-5(9-4)6(7)8/h2-3H,1H3,(H,7,8)",OVOCLWJUABOAPL-UHFFFAOYSA-N,CC1=CC=C(O1)C(O)=O,-0.82,0.0,1,G1
C-1626,5-methylcytosine,"InChI=1S/C5H7N3O/c1-3-2-7-5(9)8-4(3)6/h2H,1H3,(H3,6,7,8,9)",LRSASMSXMSNRBT-UHFFFAOYSA-N,CC1=CNC(=O)N=C1N,-1.44,0.419143041083696,3,G5
C-1627,methyl  2-allyl-2-ethylmalonurate,"InChI=1S/C10H16N2O4/c1-4-6-10(5-2,8(14)16-3)7(13)12-9(11)15/h4H,1,5-6H2,2-3H3,(H3,11,12,13,15)",GOMPBNNIROZLMY-UHFFFAOYSA-N,CCC(CC=C)(C(=O)NC(N)=O)C(=O)OC,-1.92,0.0,1,G1
C-1628,5-fluorocytosine;  flucytosine,"InChI=1S/C4H4FN3O/c5-2-1-7-4(9)8-3(2)6/h1H,(H3,6,7,8,9)",XRECTZIEBJDKEO-UHFFFAOYSA-N,NC1=NC(=O)NC=C1F,-0.94,0.016000000000000014,2,G3
C-1629,furylacrylic  acid;  3-furan-2-ylacrylic  acid,"InChI=1S/C7H6O3/c8-7(9)4-3-6-2-1-5-10-6/h1-5H,(H,8,9)/b4-3+",ZCJLOOJRNPHKAV-ONEGZZNKSA-N,OC(=O)/C=C/C1=CC=CO1,-1.84,0.0,1,G1
C-1630,Beta-d-Fructose,"InChI=1S/C6H12O6/c7-1-3(9)5(11)6(12)4(10)2-8/h3,5-9,11-12H,1-2H2",BJHIKXHVCXFQLS-UHFFFAOYSA-N,OCC(O)C(O)C(O)C(=O)CO,0.32,0.009500000000000008,2,G3
C-1631,"thiofanox;  3,3-dimethyl-1-(methylthio)-2-butanone o-[(methylamino)carbonyl]oxime","InChI=1S/C9H18N2O2S/c1-9(2,3)7(6-14-5)11-13-8(12)10-4/h6H2,1-5H3,(H,10,12)/b11-7-",FZSVSABTBYGOQH-XFFZJAGNSA-N,CNC(=O)O\N=C(CSC)/C(C)(C)C,-1.62,0.0,1,G1
C-1632,5-aminouracil,"InChI=1S/C4H5N3O2/c5-2-1-6-4(9)7-3(2)8/h1H,5H2,(H2,6,7,8,9)",BISHACNKZIBDFM-UHFFFAOYSA-N,NC1=CNC(=O)NC1=O,-2.41,0.0,1,G1
C-1634,cartap,"InChI=1S/C7H15N3O2S2/c1-10(2)5(3-13-6(8)11)4-14-7(9)12/h5H,3-4H2,1-2H3,(H2,8,11)(H2,9,12)",IRUJZVNXZWPBMU-UHFFFAOYSA-N,CN(C)C(CSC(N)=O)CSC(N)=O,-0.07,0.0,1,G1
C-1636,phenylglyoxal (monohydrate),InChI=1S/C8H6O2/c9-6-8(10)7-4-2-1-3-5-7/h1-6H,OJUGVDODNPJEEC-UHFFFAOYSA-N,O=CC(=O)C1=CC=CC=C1,-0.74,0.0,1,G1
C-1637,terephthalaldehyde;  4-formylbenzaldehyde,InChI=1S/C8H6O2/c9-5-7-1-2-8(6-10)4-3-7/h1-6H,KUCOHFSKRZZVRO-UHFFFAOYSA-N,O=CC1=CC=C(C=O)C=C1,-2.83,0.0,1,G1
C-1638,5-chlorofuran-2-carboxylic acid,"InChI=1S/C5H3ClO3/c6-4-2-1-3(9-4)5(7)8/h1-2H,(H,7,8)",NNTBDUTXMIMRKK-UHFFFAOYSA-N,OC(=O)C1=CC=C(Cl)O1,-1.69,0.0,1,G1
C-1639,"ammelin; 4,6-diamino-1,3,5-triazine-2-one","InChI=1S/C3H5N5O/c4-1-6-2(5)8-3(9)7-1/h(H5,4,5,6,7,8,9)",MASBWURJQFFLOO-UHFFFAOYSA-N,NC1=NC(=NC(=O)N1)N,-3.23,0.0,1,G1
C-1641,phthalaldehyde,InChI=1S/C8H6O2/c9-5-7-3-1-2-4-8(7)6-10/h1-6H,ZWLUXSQADUDCSB-UHFFFAOYSA-N,O=CC1=CC=CC=C1C=O,-1.34,0.0,1,G1
C-1642,tybamate,"InChI=1S/C13H26N2O4/c1-4-6-8-15-12(17)19-10-13(3,7-5-2)9-18-11(14)16/h4-10H2,1-3H3,(H2,14,16)(H,15,17)",PRBORDFJHHAISJ-UHFFFAOYSA-N,CCCCNC(=O)OCC(C)(CCC)COC(N)=O,-2.74,0.0,1,G1
C-1645,4-phenylbutyric  acid;  4-phenylbutanoic acid,"InChI=1S/C10H12O2/c11-10(12)8-4-7-9-5-2-1-3-6-9/h1-3,5-6H,4,7-8H2,(H,11,12)",OBKXEAXTFZPCHS-UHFFFAOYSA-N,OC(=O)CCCC1=CC=CC=C1,-1.78,0.0,1,G1
C-1646,"5,5-spirocycloheptylbarbituric  acid;  spiro-5,5-hexamethylenebarbituric acid","InChI=1S/C10H14N2O3/c13-7-10(5-3-1-2-4-6-10)8(14)12-9(15)11-7/h1-6H2,(H2,11,12,13,14,15)",RSWPVXFVQHCCCI-UHFFFAOYSA-N,O=C1NC(=O)C2(CCCCCC2)C(=O)N1,-2.98,0.09400000000000008,2,G3
C-1647,dopamine;  3-hydroxytyramine,"InChI=1S/C8H11NO2/c9-4-3-6-1-2-7(10)8(11)5-6/h1-2,5,10-11H,3-4,9H2",VYFYYTLLBUKUHU-UHFFFAOYSA-N,NCCC1=CC(=C(O)C=C1)O,0.12,0.0,1,G1
C-1648,propionanilide,"InChI=1S/C9H11NO/c1-2-9(11)10-8-6-4-3-5-7-8/h3-7H,2H2,1H3,(H,10,11)",ZTHRQJQJODGZHV-UHFFFAOYSA-N,CCC(=O)NC1=CC=CC=C1,-1.55,0.18499999999999994,2,G3
C-1649,"4-(1,1-dimethyl)propylphenol;  4-tert-amylphenol;  4-tert-pentylphenol","InChI=1S/C11H16O/c1-4-11(2,3)9-5-7-10(12)8-6-9/h5-8,12H,4H2,1-3H3",NRZWYNLTFLDQQX-UHFFFAOYSA-N,CCC(C)(C)C1=CC=C(O)C=C1,-2.99,0.0,1,G1
C-1650,5-ethyl-5-propyl-2-thiobarbituric acid,"InChI=1S/C9H14N2O2S/c1-3-5-9(4-2)6(12)10-8(14)11-7(9)13/h3-5H2,1-2H3,(H2,10,11,12,13,14)",LMMVXCXLEUVMEE-UHFFFAOYSA-N,CCCC1(CC)C(=O)NC(=S)NC1=O,-2.8,0.0,1,G1
C-1653,5alpha-androst-16-en-3-one;   5alpha-androstenone,"InChI=1S/C19H28O/c1-18-9-3-4-16(18)15-6-5-13-12-14(20)7-11-19(13,2)17(15)8-10-18/h3,9,13,15-17H,4-8,10-12H2,1-2H3",HFVMLYAGWXSTQI-UHFFFAOYSA-N,CC12CCC3C(CCC4CC(=O)CCC34C)C1CC=C2,-6.07,0.0,1,G1
C-1655,5-allyl-5-butylbarbituric  acid,"InChI=1S/C11H16N2O3/c1-3-5-7-11(6-4-2)8(14)12-10(16)13-9(11)15/h4H,2-3,5-7H2,1H3,(H2,12,13,14,15,16)",RRWVWLGUQPLOMY-UHFFFAOYSA-N,CCCCC1(CC=C)C(=O)NC(=O)NC1=O,-2.17,0.0,1,G1
C-1657,"3,4-dimethylbenzoic  acid","InChI=1S/C9H10O2/c1-6-3-4-8(9(10)11)5-7(6)2/h3-5H,1-2H3,(H,10,11)",OPVAJFQBSDUNQA-UHFFFAOYSA-N,CC1=C(C)C=C(C=C1)C(O)=O,-3.16,0.0,1,G1
C-1658,"2,4-dimethylbenzoic  acid","InChI=1S/C9H10O2/c1-6-3-4-8(9(10)11)7(2)5-6/h3-5H,1-2H3,(H,10,11)",BKYWPNROPGQIFZ-UHFFFAOYSA-N,CC1=CC(=C(C=C1)C(O)=O)C,-2.97,0.0,1,G1
C-1659,"2,5-dimethylbenzoic  acid","InChI=1S/C9H10O2/c1-6-3-4-7(2)8(5-6)9(10)11/h3-5H,1-2H3,(H,10,11)",XZRHNAFEYMSXRG-UHFFFAOYSA-N,CC1=CC(=C(C)C=C1)C(O)=O,-2.92,0.0,1,G1
C-1660,4-amino-n-methyl-benzamide,"InChI=1S/C8H10N2O/c1-10-8(11)6-2-4-7(9)5-3-6/h2-5H,9H2,1H3,(H,10,11)",XAGFYNSCWICYPA-UHFFFAOYSA-N,CNC(=O)C1=CC=C(N)C=C1,-1.24,0.0,1,G1
C-1661,4-isothiocyanatophenol,"InChI=1S/C7H5NOS/c9-7-3-1-6(2-4-7)8-5-10/h1-4,9H",HIPHYBWWZWRZOV-UHFFFAOYSA-N,OC1=CC=C(C=C1)N=C=S,-2.67,0.0,1,G1
C-1662,5-butyl-5-ethyl-2-thiobarbituric acid,"InChI=1S/C10H16N2O2S/c1-3-5-6-10(4-2)7(13)11-9(15)12-8(10)14/h3-6H2,1-2H3,(H2,11,12,13,14,15)",GRNZOXPRBXDLPY-UHFFFAOYSA-N,CCCCC1(CC)C(=O)NC(=S)NC1=O,-3.14,0.0,1,G1
C-1663,3-isothiocyanatophenol,"InChI=1S/C7H5NOS/c9-7-3-1-2-6(4-7)8-5-10/h1-4,9H",BWZDLMGVEVSNBI-UHFFFAOYSA-N,OC1=CC=CC(=C1)N=C=S,-1.99,0.0,1,G1
C-1664,"mephenesin;  3-(2-methylphenoxy)-1,2-propanediol","InChI=1S/C10H14O3/c1-8-4-2-3-5-10(8)13-7-9(12)6-11/h2-5,9,11-12H,6-7H2,1H3",JWDYCNIAQWPBHD-UHFFFAOYSA-N,CC1=C(OCC(O)CO)C=CC=C1,-1.19,0.0,1,G1
C-1665,nandrolone,"InChI=1S/C18H26O2/c1-18-9-8-14-13-5-3-12(19)10-11(13)2-4-15(14)16(18)6-7-17(18)20/h10,13-17,20H,2-9H2,1H3",NPAGDVCDWIYMMC-UHFFFAOYSA-N,CC12CCC3C(CCC4=CC(=O)CCC34)C1CCC2O,-3.02,0.0,1,G1
C-1666,5-methylbarbituric acid,"InChI=1S/C5H6N2O3/c1-2-3(8)6-5(10)7-4(2)9/h2H,1H3,(H2,6,7,8,9,10)",GOMAEJQBTWAPAN-UHFFFAOYSA-N,CC1C(=O)NC(=O)NC1=O,-1.13,0.0,1,G1
C-1667,"3,6-dimethylpiperazine-2,5-dione","InChI=1S/C6H10N2O2/c1-3-5(9)8-4(2)6(10)7-3/h3-4H,1-2H3,(H,7,10)(H,8,9)",WWISPHBAYBECQZ-UHFFFAOYSA-N,CC1NC(=O)C(C)NC1=O,-0.75,0.0,1,G1
C-1669,1-bromo-2-isopropylbenzene; 2-bromocumene,"InChI=1S/C9H11Br/c1-7(2)8-5-3-4-6-9(8)10/h3-7H,1-2H3",LECYCYNAEJDSIL-UHFFFAOYSA-N,CC(C)C1=C(Br)C=CC=C1,-4.19,0.0,1,G1
C-1672,benzoylformic  acid;  phenylglyoxylic  acid,"InChI=1S/C8H6O3/c9-7(8(10)11)6-4-2-1-3-5-6/h1-5H,(H,10,11)",FAQJJMHZNSSFSM-UHFFFAOYSA-N,OC(=O)C(=O)C1=CC=CC=C1,-0.37,0.0,1,G1
C-1674,3-cyanobenzoic  acid,"InChI=1S/C8H5NO2/c9-5-6-2-1-3-7(4-6)8(10)11/h1-4H,(H,10,11)",GYLKKXHEIIFTJH-UHFFFAOYSA-N,OC(=O)C1=CC(=CC=C1)C#N,-2.63,0.0,1,G1
C-1675,4-isopropylbenzoic acid,"InChI=1S/C10H12O2/c1-7(2)8-3-5-9(6-4-8)10(11)12/h3-7H,1-2H3,(H,11,12)",CKMXAIVXVKGGFM-UHFFFAOYSA-N,CC(C)C1=CC=C(C=C1)C(O)=O,-3.04,0.0,1,G1
C-1676,"methyl  2,6-dimethyl-2-(1-cyclohexen-1-yl)malonurate","InChI=1S/C13H20N2O4/c1-13(11(17)19-3,9-7-5-4-6-8-9)10(16)15-12(18)14-2/h7H,4-6,8H2,1-3H3,(H2,14,15,16,18)",DDCCQNVMPXJUAY-UHFFFAOYSA-N,CNC(=O)NC(=O)C(C)(C(=O)OC)C1=CCCCC1,-2.68,0.0,1,G1
C-1677,5-ethyl-5-pentyl-2-thiobarbituric  acid,"InChI=1S/C11H18N2O2S/c1-3-5-6-7-11(4-2)8(14)12-10(16)13-9(11)15/h3-7H2,1-2H3,(H2,12,13,14,15,16)",SVRNITUASJCBQJ-UHFFFAOYSA-N,CCCCCC1(CC)C(=O)NC(=S)NC1=O,-3.71,0.0,1,G1
C-1678,n-(hydroxymethyl)thiobenzamide,"InChI=1S/C8H9NOS/c10-6-9-8(11)7-4-2-1-3-5-7/h1-5,10H,6H2,(H,9,11)",ULLWVDKMTKASGV-UHFFFAOYSA-N,OCNC(=S)C1=CC=CC=C1,-1.14,0.0,1,G1
C-1679,"4-amylresorcinol;  4-amyl-1,3-benzenediol;  4-pentyl-1,3-benzenediol","InChI=1S/C11H16O2/c1-2-3-4-5-9-6-7-10(12)8-11(9)13/h6-8,12-13H,2-5H2,1H3",PJHYOCWMKYASAB-UHFFFAOYSA-N,CCCCCC1=C(O)C=C(O)C=C1,-1.96,0.0,1,G1
C-1680,4-(3-adamantan-1-ylureido)butanoic acid,"InChI=1S/C15H24N2O3/c18-13(19)2-1-3-16-14(20)17-15-7-10-4-11(8-15)6-12(5-10)9-15/h10-12H,1-9H2,(H,18,19)(H2,16,17,20)",NJUKVGCFDZUOHB-UHFFFAOYSA-N,OC(=O)CCCNC(=O)N[C]12C[CH]3[CH2]C([CH2][CH](C3)C1)C2,-1.6,0.0,1,G1
C-1681,3-methylsalicylic acid; 2-hydroxy-3-methylbenzoic acid,"InChI=1S/C8H8O3/c1-5-3-2-4-6(7(5)9)8(10)11/h2-4,9H,1H3,(H,10,11)",WHSXTWFYRGOBGO-UHFFFAOYSA-N,CC1=CC=CC(=C1O)C(O)=O,-2.04,0.0,1,G1
C-1682,6-methylsalicylic acid; 2-hydroxy-6-methylbenzoic acid,"InChI=1S/C8H8O3/c1-5-3-2-4-6(9)7(5)8(10)11/h2-4,9H,1H3,(H,10,11)",HCJMNOSIAGSZBM-UHFFFAOYSA-N,CC1=CC=CC(=C1C(O)=O)O,-2.04,0.0,1,G1
C-1683,dimorpholamine,"InChI=1S/C20H38N4O4/c1-3-5-7-21(19(25)23-11-15-27-16-12-23)9-10-22(8-6-4-2)20(26)24-13-17-28-18-14-24/h3-18H2,1-2H3",HZTMGWSBSDLALI-UHFFFAOYSA-N,CCCCN(CCN(CCCC)C(=O)N1CCOCC1)C(=O)N2CCOCC2,0.1,0.0,1,G1
C-1685,vamidothion,"InChI=1S/C8H18NO4PS2/c1-7(8(10)9-2)15-5-6-16-14(11,12-3)13-4/h7H,5-6H2,1-4H3,(H,9,10)",LESVOLZBIFDZGS-UHFFFAOYSA-N,CNC(=O)C(C)SCCS[P](=O)(OC)OC,0.54,0.30200000000000005,2,G3
C-1686,3-bromofuran-2-carboxylic acid,"InChI=1S/C5H3BrO3/c6-3-1-2-9-4(3)5(7)8/h1-2H,(H,7,8)",UZBGSJZFBUOJNE-UHFFFAOYSA-N,OC(=O)C1=C(Br)C=CO1,-1.17,0.0,1,G1
C-1687,crimidine;  2-chloro-4-dimethylamino-6-methylpyrimidine,"InChI=1S/C7H10ClN3/c1-5-6(11(2)3)4-9-7(8)10-5/h4H,1-3H3",BWCXPHAQSYYKEB-UHFFFAOYSA-N,CN(C)C1=C(C)N=C(Cl)N=C1,-1.26,0.0,1,G1
C-1688,nifuroxime,"InChI=1S/C5H4N2O4/c8-6-3-4-1-2-5(11-4)7(9)10/h1-3,8H/b6-3+",PTBKFATYSVLSSD-ZZXKWVIFSA-N,O/N=C/C1=CC=C(O1)[N+]([O-])=O,-2.19,0.0,1,G1
C-1689,5-ethyl-5-hexyl-2-thiobarbituric  acid,"InChI=1S/C12H20N2O2S/c1-3-5-6-7-8-12(4-2)9(15)13-11(17)14-10(12)16/h3-8H2,1-2H3,(H2,13,14,15,16,17)",MWKKOAYCASKCLO-UHFFFAOYSA-N,CCCCCCC1(CC)C(=O)NC(=S)NC1=O,-4.08,0.0,1,G1
C-1690,"5,5-spirononamethylenebarbituric acid","InChI=1S/C13H20N2O3/c16-10-13(11(17)15-12(18)14-10)8-6-4-2-1-3-5-7-9-13/h1-9H2,(H2,14,15,16,17,18)",JXEFLYKRWPXVBB-UHFFFAOYSA-N,O=C1NC(=O)C2(CCCCCCCCC2)C(=O)N1,-4.59,0.0,1,G1
C-1691,prasterone formate,"InChI=1S/C20H28O3/c1-19-9-7-14(23-12-21)11-13(19)3-4-15-16-5-6-18(22)20(16,2)10-8-17(15)19/h3,12,14-17H,4-11H2,1-2H3",HTTHUZJPMIHIOQ-UHFFFAOYSA-N,CC12CCC3C(CC=C4CC(CCC34C)OC=O)C1CCC2=O,-4.41,0.0,1,G1
C-1692,"2,4-dihydroxybenzoic  acid;  beta-resorcylic  acid","InChI=1S/C7H6O4/c8-4-1-2-5(7(10)11)6(9)3-4/h1-3,8-9H,(H,10,11)",UIAFKZKHHVMJGS-UHFFFAOYSA-N,OC(=O)C1=CC=C(O)C=C1O,-1.41,0.008000000000000007,2,G3
C-1693,"3-isobutylpiperazine-2,5-dione","InChI=1S/C8H14N2O2/c1-5(2)3-6-8(12)9-4-7(11)10-6/h5-6H,3-4H2,1-2H3,(H,9,12)(H,10,11)",VQFHWKRNHGHZTK-UHFFFAOYSA-N,CC(C)CC1NC(=O)CNC1=O,-1.25,0.0,1,G1
C-1696,imidazole-2-sulfonic acid,"InChI=1S/C3H4N2O3S/c6-9(7,8)3-4-1-2-5-3/h1-2H,(H,4,5)(H,6,7,8)",LYLDIIUFTYRPPK-UHFFFAOYSA-N,O[S](=O)(=O)C1=NC=C[NH]1,-0.3,0.11309999999999999,2,G3