ID,Name,InChI,InChIKey,SMILES,Solubility,SD,Occurrences,Group
B-1188,zinc formate,"InChI=1S/2CH2O2.Zn/c2*2-1-3;/h2*1H,(H,2,3);/q;;+2/p-2",XOBMCBQSUCOAOC-UHFFFAOYSA-L,[Zn++].[O-]C=O.[O-]C=O,-0.4755,0.0,1,G1
B-1191,"2,2-dimethyloxirane","InChI=1S/C4H8O/c1-4(2)3-5-4/h3H2,1-2H3",GELKGHVAFRCJNA-UHFFFAOYSA-N,CC1(C)CO1,-0.0946,0.0,1,G1
B-1192,"2-propanol, 1-chloro-2-methyl-","InChI=1S/C4H9ClO/c1-4(2,6)3-5/h6H,3H2,1-2H3",JNOZGFXJZQXOSU-UHFFFAOYSA-N,CC(C)(O)CCl,0.1602,0.0,1,G1
B-1193,"methane, bromotrinitro-","InChI=1S/CBrN3O6/c2-1(3(6)7,4(8)9)5(10)11",KWSSHZBBUQSMKF-UHFFFAOYSA-N,[O-][N+](=O)C(Br)([N+]([O-])=O)[N+]([O-])=O,-1.7705,0.0,1,G1
B-1199,3-chloro-2-methylpropene,"InChI=1S/C4H7Cl/c1-4(2)3-5/h1,3H2,2H3",OHXAOPZTJOUYKM-UHFFFAOYSA-N,CC(=C)CCl,-1.8108,0.0,1,G1
B-1200,"1,2-dichloropropene","InChI=1S/C3H4Cl2/c1-3(5)2-4/h2H,1H3/b3-2-",PPKPKFIWDXDAGC-IHWYPQMZSA-N,C\C(Cl)=C\Cl,-1.6138,0.0,1,G1
B-1201,"2-butanol, 3-chloro-","InChI=1S/C4H9ClO/c1-3(5)4(2)6/h3-4,6H,1-2H3",XKEHIUIIEXXHJX-UHFFFAOYSA-N,CC(O)C(C)Cl,-0.2122,0.0,1,G1
B-1202,"1,2:3,4-diepoxybutane","InChI=1S/C4H6O2/c1-3(5-1)4-2-6-4/h3-4H,1-2H2/t3-,4+",ZFIVKAOQEXOYFY-ZXZARUISSA-N,C1O[C@@H]1[C@H]2CO2,1.065,0.0,1,G1
B-1210,"propanoic acid, 3-amino-2-hydroxy-","InChI=1S/C3H7NO3/c4-1-2(5)3(6)7/h2,5H,1,4H2,(H,6,7)",BMYNFMYTOJXKLE-UHFFFAOYSA-N,NCC(O)C(O)=O,-0.8229,0.008550000000000002,2,G3
B-1211,2-bromo-3-methyl-butanoic acid,"InChI=1S/C5H9BrO2/c1-3(2)4(6)5(7)8/h3-4H,1-2H3,(H,7,8)",UEBARDWJXBGYEJ-UHFFFAOYSA-N,CC(C)C(Br)C(O)=O,-1.103,0.0,1,G1
B-1214,"butanoic acid, 3-amino-2-hydroxy-","InChI=1S/C4H9NO3/c1-2(5)3(6)4(7)8/h2-3,6H,5H2,1H3,(H,7,8)",QTRAXZHIRXYYPP-UHFFFAOYSA-N,CC(N)C(O)C(O)=O,-0.3535,0.0,1,G1
B-1218,inositol monophosphate,"InChI=1S/C6H13O9P/c7-1-2(8)4(10)6(5(11)3(1)9)15-16(12,13)14/h1-11H,(H2,12,13,14)",INAPMGSXUVUWAF-UHFFFAOYSA-N,OC1C(O)C(O)C(O[P](O)(O)=O)C(O)C1O,0.1076,0.0,1,G1
B-1219,"benzoic acid, 2-hydroxy-, methoxymethyl ester","InChI=1S/C9H10O4/c1-12-6-13-9(11)7-4-2-3-5-8(7)10/h2-5,10H,6H2,1H3",NTIBMIIYTKPBNR-UHFFFAOYSA-N,COCOC(=O)c1ccccc1O,-2.3,0.0,1,G1
B-1221,"3,4-piperidinedicarboxylic acid","InChI=1S/C7H11NO4/c9-6(10)4-1-2-8-3-5(4)7(11)12/h4-5,8H,1-3H2,(H,9,10)(H,11,12)",UBLWASUIZDSYFN-UHFFFAOYSA-N,OC(=O)C1CCNCC1C(O)=O,-0.5395,0.0,1,G1
B-1227,3-quinolinol,"InChI=1S/C9H7NO/c11-8-5-7-3-1-2-4-9(7)10-6-8/h1-6,11H",IQQDNMHUOLMLNJ-UHFFFAOYSA-N,Oc1cnc2ccccc2c1,-2.3925,0.0,1,G1
B-1228,7-quinolinol,"InChI=1S/C9H7NO/c11-8-4-3-7-2-1-5-10-9(7)6-8/h1-6,11H",XCRPPAPDRUBKRJ-UHFFFAOYSA-N,[O-]c1ccc2ccc[nH+]c2c1,-2.5038,0.0,1,G1
B-1229,chlorazine,"InChI=1S/C11H20ClN5/c1-5-16(6-2)10-13-9(12)14-11(15-10)17(7-3)8-4/h5-8H2,1-4H3",QHXDTLYEHWXDSO-UHFFFAOYSA-N,CCN(CC)c1nc(Cl)nc(n1)N(CC)CC,-4.4112,0.024399999999999977,2,G3
B-1230,anatabine,"InChI=1S/C10H12N2/c1-2-7-12-10(5-1)9-4-3-6-11-8-9/h1-4,6,8,10,12H,5,7H2/t10-/m0/s1",SOPPBXUYQGUQHE-JTQLQIEISA-N,C1N[C@@H](CC=C1)c2cccnc2,0.7953,0.0,1,G1
B-1232,"8h-purine-8-thione, 1,7-dihydro-","InChI=1S/C5H4N4S/c10-5-8-3-1-6-2-7-4(3)9-5/h1-2H,(H2,6,7,8,9,10)",VABISHCLVYMGAU-UHFFFAOYSA-N,S=C1Nc2cncnc2N1,-2.5243,0.0,1,G1
B-1233,potassium oxalate,"InChI=1S/C2H2O4.2K/c3-1(4)2(5)6;;/h(H,3,4)(H,5,6);;/q;2*+1/p-2",IRXRGVFLQOSHOH-UHFFFAOYSA-L,[K+].[K+].[O-]C(=O)C([O-])=O,0.1773,0.0,1,G1
B-1235,"1,2-butanediol","InChI=1S/C4H10O2/c1-2-4(6)3-5/h4-6H,2-3H2,1H3",BMRWNKZVCUKKSR-UHFFFAOYSA-N,CCC(O)CO,1.0452,0.0,1,G1
B-1236,allethrin,"InChI=1S/C19H26O3/c1-7-8-13-12(4)16(10-15(13)20)22-18(21)17-14(9-11(2)3)19(17,5)6/h7,9,14,16-17H,1,8,10H2,2-6H3",ZCVAOQKBXKSDMS-UHFFFAOYSA-N,CC(C)=CC1C(C(=O)OC2CC(=O)C(=C2C)CC=C)C1(C)C,-4.8179,0.0,1,G1
B-1237,"alanine, n-(aminocarbonyl)-","InChI=1S/C4H8N2O3/c1-2(3(7)8)6-4(5)9/h2H,1H3,(H,7,8)(H3,5,6,9)/t2-/m0/s1",LUSWEUMSEVLFEQ-REOHCLBHSA-N,C[C@H](NC(N)=O)C(O)=O,-0.7845,0.0,1,G1
B-1238,"phenol, 3-(1,1-dimethylethyl)-","InChI=1S/C10H14O/c1-10(2,3)8-5-4-6-9(11)7-8/h4-7,11H,1-3H3",CYEKUDPFXBLGHH-UHFFFAOYSA-N,CC(C)(C)c1cccc(O)c1,-1.8614,0.0,1,G1
B-1239,3-bromo-1-nitrobenzene,InChI=1S/C6H4BrNO2/c7-5-2-1-3-6(4-5)8(9)10/h1-4H,FWIROFMBWVMWLB-UHFFFAOYSA-N,[O-][N+](=O)c1cccc(Br)c1,-1.3054,0.0,1,G1
B-1240,"1-propene-1,2,3-tricarboxylic acid, (z)-","InChI=1S/C6H6O6/c7-4(8)1-3(6(11)12)2-5(9)10/h1H,2H2,(H,7,8)(H,9,10)(H,11,12)/b3-1+",GTZCVFVGUGFEME-HNQUOIGGSA-N,OC(=O)C\C(=C/C(O)=O)C(O)=O,0.3612,0.04839999999999997,2,G3
B-1241,lactitol,"InChI=1S/C12H24O11/c13-1-4(16)7(18)11(5(17)2-14)23-12-10(21)9(20)8(19)6(3-15)22-12/h4-21H,1-3H2",VQHSOMBJVWLPSR-UHFFFAOYSA-N,OCC(O)C(O)C(OC1OC(CO)C(O)C(O)C1O)C(O)CO,0.2872,0.0,1,G1
B-1242,melibiose,"InChI=1S/C12H22O11/c13-1-3-5(14)8(17)10(19)12(23-3)21-2-4-6(15)7(16)9(18)11(20)22-4/h3-20H,1-2H2",DLRVVLDZNNYCBX-UHFFFAOYSA-N,OCC1OC(OCC2OC(O)C(O)C(O)C2O)C(O)C(O)C1O,0.4656,0.0,1,G1
B-1244,"1,4-benzenedicarboxylic acid, 2-bromo-","InChI=1S/C8H5BrO4/c9-6-3-4(7(10)11)1-2-5(6)8(12)13/h1-3H,(H,10,11)(H,12,13)",QPBGNSFASPVGTP-UHFFFAOYSA-N,OC(=O)c1ccc(C(O)=O)c(Br)c1,-2.1339,0.0,1,G1
B-1245,terpinolene,"InChI=1S/C10H16/c1-8(2)10-6-4-9(3)5-7-10/h4H,5-7H2,1-3H3",MOYAFQVGZZPNRA-UHFFFAOYSA-N,CC(C)=C1CCC(=CC1)C,-4.1566,0.0,1,G1
B-1246,4-pyridinemethanol,"InChI=1S/C6H7NO/c8-5-6-1-3-7-4-2-6/h1-4,8H,5H2",PTMBWNZJOQBTBK-UHFFFAOYSA-N,OCc1ccncc1,0.9621,0.0,1,G1
B-1247,"2-propanol, 1,3-dichloro-, carbamate","InChI=1S/C4H7Cl2NO2/c5-1-3(2-6)9-4(7)8/h3H,1-2H2,(H2,7,8)",JMNCUXPHXKHBPY-UHFFFAOYSA-N,NC(=O)OC(CCl)CCl,-1.3605,0.0,1,G1
B-1248,m-methylbenzyl alcohol,"InChI=1S/C8H10O/c1-7-3-2-4-8(5-7)6-9/h2-5,9H,6H2,1H3",JJCKHVUTVOPLBV-UHFFFAOYSA-N,Cc1cccc(CO)c1,-0.38799999999999996,0.0,1,G1
B-1250,m-chlorophenoxyacetic acid,"InChI=1S/C8H7ClO3/c9-6-2-1-3-7(4-6)12-5-8(10)11/h1-4H,5H2,(H,10,11)",XSBUXVWJQVTYLC-UHFFFAOYSA-N,OC(=O)COc1cccc(Cl)c1,-2.1954,0.14769999999999994,2,G3
B-1252,"1,4-benzenedimethanol","InChI=1S/C8H10O2/c9-5-7-1-2-8(6-10)4-3-7/h1-4,9-10H,5-6H2",BWVAOONFBYYRHY-UHFFFAOYSA-N,OCc1ccc(CO)cc1,-0.3861,0.0,1,G1
B-1260,"1,2-diiodoethene (cis)",InChI=1S/C2H2I2/c3-1-2-4/h1-2H/b2-1-,CVOGMKGEVNGRSK-UPHRSURJSA-N,I\C=C/I,-2.7813,0.0,1,G1
B-1262,potassium formate,"InChI=1S/CH2O2.K/c2-1-3;/h1H,(H,2,3);/q;+1/p-1",WFIZEGIEIOHZCP-UHFFFAOYSA-M,[K+].[O-]C=O,0.9288,0.0,1,G1
B-1265,bethanechol chloride,"InChI=1S/C7H16N2O2.ClH/c1-6(11-7(8)10)5-9(2,3)4;/h6H,5H2,1-4H3,(H-,8,10);1H",XXRMYXBSBOVVBH-UHFFFAOYSA-N,[Cl-].CC(C[N+](C)(C)C)OC(N)=O,0.5021,0.0,1,G1
B-1266,"2,2-dimethylhexane","InChI=1S/C8H18/c1-5-6-7-8(2,3)4/h5-7H2,1-4H3",FLTJDUOFAQWHDF-UHFFFAOYSA-N,CCCCC(C)(C)C,-5.7568,0.0,1,G1
B-1267,3-methyl-1-butanal,"InChI=1S/C5H10O/c1-5(2)3-4-6/h4-5H,3H2,1-2H3",YGHRJJRRZDOVPD-UHFFFAOYSA-N,CC(C)CC=O,-0.7891,0.0,1,G1
B-1268,dicyanodiamidine sulfate,"InChI=1S/2C2H6N4O.H2O4S/c2*3-1(4)6-2(5)7;1-5(2,3)4/h2*(H6,3,4,5,6,7);(H2,1,2,3,4)",IATXFPUBPMZBPH-UHFFFAOYSA-N,NC(N)=NC(N)=O.NC(N)=NC(N)=O.O[S](O)(=O)=O,-0.7814,0.0,1,G1
B-1272,allyl acetate,"InChI=1S/C5H8O2/c1-3-4-7-5(2)6/h3H,1,4H2,2H3",FWZUNOYOVVKUNF-UHFFFAOYSA-N,CC(=O)OCC=C,-0.5534,0.0,1,G1
B-1277,chlorofluoromethane,InChI=1S/CH2ClF/c2-1-3/h1H2,XWCDCDSDNJVCLO-UHFFFAOYSA-N,FCCl,-0.8202,0.0,1,G1
B-1278,dimethyl selenide,InChI=1S/C2H6Se/c1-3-2/h1-2H3,RVIXKDRPFPUUOO-UHFFFAOYSA-N,C[Se]C,-0.6502,0.0,1,G1
B-1280,"acetamide, 2,2,2-tribromo-","InChI=1S/C2H2Br3NO/c3-2(4,5)1(6)7/h(H2,6,7)",ORCCSQMJUGMAQU-UHFFFAOYSA-N,NC(=O)C(Br)(Br)Br,-1.2668,0.0,1,G1
B-1282,trichloroacetamide,"InChI=1S/C2H2Cl3NO/c3-2(4,5)1(6)7/h(H2,6,7)",UPQQXPKAYZYUKO-UHFFFAOYSA-N,NC(=O)C(Cl)(Cl)Cl,-1.0966,0.0,1,G1
B-1283,"1,1-dichloro-1-nitroethane","InChI=1S/C2H3Cl2NO2/c1-2(3,4)5(6)7/h1H3",OQOGEOLRYAOSKO-UHFFFAOYSA-N,CC(Cl)(Cl)[N+]([O-])=O,-1.7603,0.0,1,G1
B-1285,"1,1-dichloro-1-nitropropane","InChI=1S/C3H5Cl2NO2/c1-2-3(4,5)6(7)8/h2H2,1H3",DNYOTMDPSXBJRJ-UHFFFAOYSA-N,CCC(Cl)(Cl)[N+]([O-])=O,-1.4996,0.0,1,G1
B-1286,"2-ethyl-2-nitro-1,3-propanediol","InChI=1S/C5H11NO4/c1-2-5(3-7,4-8)6(9)10/h7-8H,2-4H2,1H3",YADISKICBOYXFS-UHFFFAOYSA-N,CCC(CO)(CO)[N+]([O-])=O,0.8264,0.0,1,G1
B-1287,"3-hydroxy-2,2-dimethylpropanal","InChI=1S/C5H10O2/c1-5(2,3-6)4-7/h3,7H,4H2,1-2H3",JJMOMMLADQPZNY-UHFFFAOYSA-N,CC(C)(CO)C=O,-0.3279,0.0,1,G1
B-1288,"2-propanol, 1,3-dichloro-2-methyl-","InChI=1S/C4H8Cl2O/c1-4(7,2-5)3-6/h7H,2-3H2,1H3",UZHWBXUQTDSMGJ-UHFFFAOYSA-N,CC(O)(CCl)CCl,-0.1822,0.0,1,G1
B-1290,"1,3-propanediol, 2,2-bis (acetyloxy)methyl -, di","InChI=1S/C13H20O8/c1-9(14)18-5-13(6-19-10(2)15,7-20-11(3)16)8-21-12(4)17/h5-8H2,1-4H3",OUHCZCFQVONTOC-UHFFFAOYSA-N,CC(=O)OCC(COC(C)=O)(COC(C)=O)COC(C)=O,-1.5686,0.0,1,G1
B-1292,"4-heptanol, 4-methyl-","InChI=1S/C8H18O/c1-4-6-8(3,9)7-5-2/h9H,4-7H2,1-3H3",IQXKGRKRIRMQCQ-UHFFFAOYSA-N,CCCC(C)(O)CCC,-1.5867,0.0,1,G1
B-1294,"oxirane, 2-(chloromethyl)-2-methyl-","InChI=1S/C4H7ClO/c1-4(2-5)3-6-4/h2-3H2,1H3",VVHFXJOCUKBZFS-UHFFFAOYSA-N,CC1(CCl)CO1,-0.5504,0.0,1,G1
B-1295,"1,2-dibromo-1-chloroethane","InChI=1S/C2H3Br2Cl/c3-1-2(4)5/h2H,1H2",DVTKTUMRXCKEEG-UHFFFAOYSA-N,ClC(Br)CBr,-2.5546,0.0,1,G1
B-1298,"acetamide, 2,2-dibromo-","InChI=1S/C2H3Br2NO/c3-1(4)2(5)6/h1H,(H2,5,6)",YUIKPESWSMJSMP-UHFFFAOYSA-N,NC(=O)C(Br)Br,-1.0574,0.0,1,G1
B-1299,"1,1,2-trichloropropane","InChI=1S/C3H5Cl3/c1-2(4)3(5)6/h2-3H,1H3",GRSQYISVQKPZCW-UHFFFAOYSA-N,CC(Cl)C(Cl)Cl,-1.8898,0.0,1,G1
B-1300,2-chloropropionic acid,"InChI=1S/C3H5ClO2/c1-2(4)3(5)6/h2H,1H3,(H,5,6)",GAWAYYRQGQZKCR-UHFFFAOYSA-N,CC(Cl)C(O)=O,0.9645,0.0,1,G1
B-1302,"ethane, 1-chloro-1-nitro-","InChI=1S/C2H4ClNO2/c1-2(3)4(5)6/h2H,1H3",LPIWIOBGUAPNQW-UHFFFAOYSA-N,CC(Cl)[N+]([O-])=O,-1.4374,0.0,1,G1
B-1303,"benzenesulfonic acid, 4-methyl-, 2-methylphenyl","InChI=1S/C14H14O3S/c1-11-7-9-13(10-8-11)18(15,16)17-14-6-4-3-5-12(14)2/h3-10H,1-2H3",WBKWVLAHWVFXKM-UHFFFAOYSA-N,Cc1ccc(cc1)[S](=O)(=O)Oc2ccccc2C,-3.9417,0.0,1,G1
B-1304,"ethane, 1,1,1-trichloro-2,2-diethoxy-","InChI=1S/C6H11Cl3O2/c1-3-10-5(11-4-2)6(7,8)9/h5H,3-4H2,1-2H3",CGCJBAIEQANINV-UHFFFAOYSA-N,CCOC(OCC)C(Cl)(Cl)Cl,-1.6464,0.0,1,G1
B-1308,"acenaphthylene, 1,2-dihydro-5-nitro-","InChI=1S/C12H9NO2/c14-13(15)11-7-6-9-5-4-8-2-1-3-10(11)12(8)9/h1-3,6-7H,4-5H2",CUARLQDWYSRQDF-UHFFFAOYSA-N,[O-][N+](=O)c1ccc2CCc3cccc1c23,-5.3403,0.0,1,G1
B-1314,"benzoic acid, 2-benzoyl-, ethyl ester","InChI=1S/C16H14O3/c1-2-19-16(18)14-11-7-6-10-13(14)15(17)12-8-4-3-5-9-12/h3-11H,2H2,1H3",CGWFVEFHQWJOKI-UHFFFAOYSA-N,CCOC(=O)c1ccccc1C(=O)c2ccccc2,-3.4053,0.0,1,G1
B-1315,2-hydroxyanthraquinone,"InChI=1S/C14H8O3/c15-8-5-6-11-12(7-8)14(17)10-4-2-1-3-9(10)13(11)16/h1-7,15H",GCDBEYOJCZLKMC-UHFFFAOYSA-N,Oc1ccc2C(=O)c3ccccc3C(=O)c2c1,-5.3093,0.0,1,G1
B-1316,"benzoic acid, 2-benzoyl-, methyl ester","InChI=1S/C15H12O3/c1-18-15(17)13-10-6-5-9-12(13)14(16)11-7-3-2-4-8-11/h2-10H,1H3",NQSMEZJWJJVYOI-UHFFFAOYSA-N,COC(=O)c1ccccc1C(=O)c2ccccc2,-3.4776,0.0,1,G1
B-1317,"2,4(1h,3h)-quinazolinedione, 6,8-dinitro-","InChI=1S/C8H4N4O6/c13-7-4-1-3(11(15)16)2-5(12(17)18)6(4)9-8(14)10-7/h1-2H,(H2,9,10,13,14)",COWHVSLHGUONGN-UHFFFAOYSA-N,[O-][N+](=O)c1cc2C(=O)NC(=O)Nc2c(c1)[N+]([O-])=O,-3.2057,0.0,1,G1
B-1318,1-methyl-2(h)-quinolinone,"InChI=1S/C10H9NO/c1-11-9-5-3-2-4-8(9)6-7-10(11)12/h2-7H,1H3",QYEMNJMSULGQRD-UHFFFAOYSA-N,CN1C(=O)C=Cc2ccccc12,-1.0466,0.0,1,G1
B-1321,"1,3-benzenediol, 2-methyl-","InChI=1S/C7H8O2/c1-5-6(8)3-2-4-7(5)9/h2-4,8-9H,1H3",ZTMADXFOCUXMJE-UHFFFAOYSA-N,Cc1c(O)cccc1O,0.3264,0.0,1,G1
B-1322,"altraric acid, d-","InChI=1S/C6H10O8/c7-1(3(9)5(11)12)2(8)4(10)6(13)14/h1-4,7-10H,(H,11,12)(H,13,14)/t1-,2+,3-,4-/m0/s1",DSLZVSRJTYRBFB-YCAKELIYSA-N,O[C@H]([C@H](O)[C@H](O)C(O)=O)[C@H](O)C(O)=O,0.1999,0.83865,2,G2
B-1324,"propanedioic acid, oxo-, diethyl ester","InChI=1S/C7H10O5/c1-3-11-6(9)5(8)7(10)12-4-2/h3-4H2,1-2H3",DBKKFIIYQGGHJO-UHFFFAOYSA-N,CCOC(=O)C(=O)C(=O)OCC,0.5117,0.0,1,G1
B-1325,2-nitro-1-butanol,"InChI=1S/C4H9NO3/c1-2-4(3-6)5(7)8/h4,6H,2-3H2,1H3",MHIHRIPETCJEMQ-UHFFFAOYSA-N,CCC(CO)[N+]([O-])=O,-0.3436,0.0,1,G1
B-1326,"2,4-dichloro-6-nitrophenol","InChI=1S/C6H3Cl2NO3/c7-3-1-4(8)6(10)5(2-3)9(11)12/h1-2,10H",LYPMXMBQPXPNIQ-UHFFFAOYSA-N,Oc1c(Cl)cc(Cl)cc1[N+]([O-])=O,-4.0876,0.0,1,G1
B-1327,"benzoic acid, 3-formyl-2-hydroxy-","InChI=1S/C8H6O4/c9-4-5-2-1-3-6(7(5)10)8(11)12/h1-4,10H,(H,11,12)",YOEUNKPREOJHBW-UHFFFAOYSA-N,OC(=O)c1cccc(C=O)c1O,-2.4423,0.0,1,G1
B-1329,1-methylanthracene,"InChI=1S/C15H12/c1-11-5-4-8-14-9-12-6-2-3-7-13(12)10-15(11)14/h2-10H,1H3",KZNJSFHJUQDYHE-UHFFFAOYSA-N,Cc1cccc2cc3ccccc3cc12,-5.8541,0.0,1,G1
B-1331,"benzeneacetic acid, .alpha.-hydroxy-, (r)-","InChI=1S/C8H8O3/c9-7(8(10)11)6-4-2-1-3-5-6/h1-5,7,9H,(H,10,11)/t7-/m1/s1",IWYDHOAUDWTVEP-SSDOTTSWSA-N,O[C@@H](C(O)=O)c1ccccc1,-0.1417,0.0,1,G1
B-1333,"1,2-benzenedimethanol","InChI=1S/C8H10O2/c9-5-7-3-1-2-4-8(7)6-10/h1-4,9-10H,5-6H2",XMUZQOKACOLCSS-UHFFFAOYSA-N,OCc1ccccc1CO,0.0569,0.0,1,G1
B-1334,"benzoic acid, 2-(hydroxymethyl)-","InChI=1S/C8H8O3/c9-5-6-3-1-2-4-7(6)8(10)11/h1-4,9H,5H2,(H,10,11)",MGMNPSAERQZUIM-UHFFFAOYSA-N,OCc1ccccc1C(O)=O,-1.5508,0.0,1,G1
B-1335,2-ethylnitrobenzene,"InChI=1S/C8H9NO2/c1-2-7-5-3-4-6-8(7)9(10)11/h3-6H,2H2,1H3",PXWYZLWEKCMTEZ-UHFFFAOYSA-N,CCc1ccccc1[N+]([O-])=O,-2.7993,0.0,1,G1
B-1336,2-nitrobenzyl alcohol,"InChI=1S/C7H7NO3/c9-5-6-3-1-2-4-7(6)8(10)11/h1-4,9H,5H2",BWRBVBFLFQKBPT-UHFFFAOYSA-N,OCc1ccccc1[N+]([O-])=O,-1.4861,0.0,1,G1
B-1338,"nicotinic acid, ethyl ester","InChI=1S/C8H9NO2/c1-2-11-8(10)7-4-3-5-9-6-7/h3-6H,2H2,1H3",XBLVHTDFJBKJLG-UHFFFAOYSA-N,CCOC(=O)c1cccnc1,-0.4313,0.0,1,G1
B-1341,ethyl n-methylnitrosocarbamate,"InChI=1S/C4H8N2O3/c1-3-9-4(7)6(2)5-8/h3H2,1-2H3",CAUBWLYZCDDYEF-UHFFFAOYSA-N,CCOC(=O)N(C)N=O,-0.5528,0.0,1,G1
B-1343,dl-norleucine,"InChI=1S/C6H13NO2/c1-2-3-4-5(7)6(8)9/h5H,2-4,7H2,1H3,(H,8,9)",LRQKBLKVPFOOQJ-UHFFFAOYSA-N,CCCCC(N)C(O)=O,-1.0453,0.007350000000000079,2,G3
B-1347,"1h-imidazole, 1-methyl-","InChI=1S/C4H6N2/c1-6-3-2-5-4-6/h2-4H,1H3",MCTWTZJPVLRJOU-UHFFFAOYSA-N,Cn1ccnc1,1.0856,0.0,1,G1
B-1349,"1,3-benzenediol, 4,6-dinitro-","InChI=1S/C6H4N2O6/c9-5-2-6(10)4(8(13)14)1-3(5)7(11)12/h1-2,9-10H",MBXIRNHACKAGPA-UHFFFAOYSA-N,Oc1cc(O)c(cc1[N+]([O-])=O)[N+]([O-])=O,-3.4086,0.0,1,G1
B-1350,"benzoic acid, 5-formyl-2-hydroxy-","InChI=1S/C8H6O4/c9-4-5-1-2-7(10)6(3-5)8(11)12/h1-4,10H,(H,11,12)",UTCFOFWMEPQCSR-UHFFFAOYSA-N,OC(=O)c1cc(C=O)ccc1O,-2.6354,0.0,1,G1
B-1351,pentylmalonic acid,"InChI=1S/C8H14O4/c1-2-3-4-5-6(7(9)10)8(11)12/h6H,2-5H2,1H3,(H,9,10)(H,11,12)",LAWHHRXCBUNWFI-UHFFFAOYSA-N,CCCCCC(C(O)=O)C(O)=O,0.5921,0.0,1,G1
B-1352,2-methyl-3-hexanol,"InChI=1S/C7H16O/c1-4-5-7(8)6(2)3/h6-8H,4-5H2,1-3H3",RGRUUTLDBCWYBL-UHFFFAOYSA-N,CCCC(O)C(C)C,-1.3093,0.005350000000000077,2,G3
B-1353,dl-aspartic acid,"InChI=1S/C4H7NO4/c5-2(4(8)9)1-3(6)7/h2H,1,5H2,(H,6,7)(H,8,9)",CKLJMWTZIZZHCS-UHFFFAOYSA-N,NC(CC(O)=O)C(O)=O,-1.2125,0.46664833855377646,4,G5
B-1357,"benzenesulfonic acid, 3-(dimethylamino)-","InChI=1S/C8H11NO3S/c1-9(2)7-4-3-5-8(6-7)13(10,11)12/h3-6H,1-2H3,(H,10,11,12)",SOKSKPNEBIDBOU-UHFFFAOYSA-N,CN(C)c1cccc(c1)[S](O)(=O)=O,0.2983,0.0,1,G1
B-1358,"2-furancarboxylic acid, 5-chloro-","InChI=1S/C5H3ClO3/c6-4-2-1-3(9-4)5(7)8/h1-2H,(H,7,8)/p-1",NNTBDUTXMIMRKK-UHFFFAOYSA-M,[O-]C(=O)c1oc(Cl)cc1,-1.7188,0.0,1,G1
B-1361,m-nitrobenzyl alcohol,"InChI=1S/C7H7NO3/c9-5-6-2-1-3-7(4-6)8(10)11/h1-4,9H,5H2",CWNPOQFCIIFQDM-UHFFFAOYSA-N,OCc1cccc(c1)[N+]([O-])=O,-2.4142,0.0,1,G1
B-1362,p-cyanobenzoic acid,"InChI=1S/C8H5NO2/c9-5-6-1-3-7(4-2-6)8(10)11/h1-4H,(H,10,11)",ADCUEPOHPCPMCE-UHFFFAOYSA-N,OC(=O)c1ccc(cc1)C#N,-2.0885,0.0807500000000001,2,G3
B-1363,p-nitrobenzyl alcohol,"InChI=1S/C7H7NO3/c9-5-6-1-3-7(4-2-6)8(10)11/h1-4,9H,5H2",JKTYGPATCNUWKN-UHFFFAOYSA-N,OCc1ccc(cc1)[N+]([O-])=O,-1.8841,0.0,1,G1
B-1365,m-hydroxybenzyl alcohol,"InChI=1S/C7H8O2/c8-5-6-2-1-3-7(9)4-6/h1-4,8-9H,5H2",OKVJCVWFVRATSG-UHFFFAOYSA-N,OCc1cccc(O)c1,-0.2678,0.0,1,G1
B-1366,"acetamide, 2-cyano-n-phenyl-","InChI=1S/C9H8N2O/c10-7-6-9(12)11-8-4-2-1-3-5-8/h1-5H,6H2,(H,11,12)",XCTQPMCULSZKLT-UHFFFAOYSA-N,O=C(CC#N)Nc1ccccc1,-2.7275,0.0,1,G1
B-1367,m-hydroxyphenylacetic acid,"InChI=1S/C8H8O3/c9-7-3-1-2-6(4-7)5-8(10)11/h1-4,9H,5H2,(H,10,11)",FVMDYYGIDFPZAX-UHFFFAOYSA-N,OC(=O)Cc1cccc(O)c1,0.8177,0.0,1,G1
B-1368,"1-pentanamine, n,n-dipentyl-","InChI=1S/C15H33N/c1-4-7-10-13-16(14-11-8-5-2)15-12-9-6-3/h4-15H2,1-3H3",OOHAUGDGCWURIT-UHFFFAOYSA-N,CCCCCN(CCCCC)CCCCC,-4.0326,0.0,1,G1
B-1371,p-hydroxybenzyl alcohol,"InChI=1S/C7H8O2/c8-5-6-1-3-7(9)4-2-6/h1-4,8-9H,5H2",BVJSUAQZOZWCKN-UHFFFAOYSA-N,OCc1ccc(O)cc1,-1.2678,0.0,1,G1
B-1372,4-chloroanisole,"InChI=1S/C7H7ClO/c1-9-7-4-2-6(8)3-5-7/h2-5H,1H3",YRGAYAGBVIXNAQ-UHFFFAOYSA-N,COc1ccc(Cl)cc1,-2.7793,0.0,1,G1
B-1375,"1,2-propylene glycol diacetate","InChI=1S/C7H12O4/c1-5(11-7(3)9)4-10-6(2)8/h5H,4H2,1-3H3",MLHOXUWWKVQEJB-UHFFFAOYSA-N,CC(COC(C)=O)OC(C)=O,-0.2046,0.0,1,G1
B-1376,"decanedioic acid, bis(2-ethoxyethyl) ester","InChI=1S/C18H34O6/c1-3-21-13-15-23-17(19)11-9-7-5-6-8-10-12-18(20)24-16-14-22-4-2/h3-16H2,1-2H3",UVRXDBUBNLXONB-UHFFFAOYSA-N,CCOCCOC(=O)CCCCCCCCC(=O)OCCOCC,-3.1972,0.0,1,G1
B-1377,diethyl azelate,"InChI=1S/C13H24O4/c1-3-16-12(14)10-8-6-5-7-9-11-13(15)17-4-2/h3-11H2,1-2H3",CQMYCPZZIPXILQ-UHFFFAOYSA-N,CCOC(=O)CCCCCCCC(=O)OCC,-2.99,0.0,1,G1
B-1382,amyl propionate,"InChI=1S/C8H16O2/c1-3-5-6-7-10-8(9)4-2/h3-7H2,1-2H3",TWSRVQVEYJNFKQ-UHFFFAOYSA-N,CCCCCOC(=O)CC,-2.2505,0.48525000000000007,2,G3
B-1384,"3,3-dimethyl-1-butanol","InChI=1S/C6H14O/c1-6(2,3)4-5-7/h7H,4-5H2,1-3H3",DUXCSEISVMREAX-UHFFFAOYSA-N,CC(C)(C)CCO,-1.1308,0.3154,2,G3
B-1385,"2,4-dimethyl-2-pentanol","InChI=1S/C7H16O/c1-6(2)5-7(3,4)8/h6,8H,5H2,1-4H3",FMLSQAUAAGVTJO-UHFFFAOYSA-N,CC(C)CC(C)(C)O,-0.9307,0.017364011313313752,3,G5
B-1386,"urea, (1,1-dimethylpropyl)-","InChI=1S/C6H14N2O/c1-4-6(2,3)8-5(7)9/h4H2,1-3H3,(H3,7,8,9)",OVUWGANMOQIFHZ-UHFFFAOYSA-N,CCC(C)(C)NC(N)=O,-1.0142,0.0,1,G1
B-1391,methoxyacetic acid,"InChI=1S/C3H6O3/c1-6-2-3(4)5/h2H2,1H3,(H,4,5)",RMIODHQZRUFFFF-UHFFFAOYSA-N,COCC(O)=O,1.0454,0.0,1,G1
B-1393,ethyl isopropyl ether,"InChI=1S/C5H12O/c1-4-6-5(2)3/h5H,4H2,1-3H3",XSJVWZAETSBXKU-UHFFFAOYSA-N,CCOC(C)C,-0.5607,0.005349999999999966,2,G3
B-1395,3-chloroiodobenzene,InChI=1S/C6H4ClI/c7-5-2-1-3-6(8)4-5/h1-4H,JMLWXCJXOYDXRN-UHFFFAOYSA-N,Clc1cccc(I)c1,-3.55,0.008999999999999897,2,G3
B-1398,"1,3-benzenedimethanol","InChI=1S/C8H10O2/c9-5-7-2-1-3-8(4-7)6-10/h1-4,9-10H,5-6H2",YWMLORGQOFONNT-UHFFFAOYSA-N,OCc1cccc(CO)c1,-0.2328,0.0,1,G1
B-1401,"2-propanol, 1,3-bis(3-methylbutoxy)-","InChI=1S/C13H28O3/c1-11(2)5-7-15-9-13(14)10-16-8-6-12(3)4/h11-14H,5-10H2,1-4H3",ARRCKRNGGJHASO-UHFFFAOYSA-N,CC(C)CCOCC(O)COCCC(C)C,-1.3662,0.0,1,G1
B-1402,"hexanedioic acid, monoethyl ester","InChI=1S/C8H14O4/c1-2-12-8(11)6-4-3-5-7(9)10/h2-6H2,1H3,(H,9,10)",UZNLHJCCGYKCIL-UHFFFAOYSA-N,CCOC(=O)CCCCC(O)=O,-0.3602,0.0,1,G1
B-1403,4-methyl-1-pentanol,"InChI=1S/C6H14O/c1-6(2)4-3-5-7/h6-7H,3-5H2,1-2H3",PCWGTDULNUVNBN-UHFFFAOYSA-N,CC(C)CCCO,-1.1286,0.005699999999999927,2,G3
B-1404,2-pentenoic acid,"InChI=1S/C5H8O2/c1-2-3-4-5(6)7/h3-4H,2H2,1H3,(H,6,7)/b4-3-",YIYBQIKDCADOSF-ARJAWSKDSA-N,CC\C=C/C(O)=O,-0.2019,0.0,1,G1
B-1406,1-propylnitrate,"InChI=1S/C3H7NO3/c1-2-3-7-4(5)6/h2-3H2,1H3",JNTOKFNBDFMTIV-UHFFFAOYSA-N,CCCO[N+]([O-])=O,-1.5044,0.0,1,G1
B-1410,"ethane, 1-chloro-2-methoxy-","InChI=1S/C3H7ClO/c1-5-3-2-4/h2-3H2,1H3",XTIGGAHUZJWQMD-UHFFFAOYSA-N,COCCCl,-0.0725,0.0,1,G1
B-1412,"3-isopentyloxy-propane-1,2-diol","InChI=1S/C8H18O3/c1-7(2)3-4-11-6-8(10)5-9/h7-10H,3-6H2,1-2H3",AIOHBDYXYKMBIF-UHFFFAOYSA-N,CC(C)CCOCC(O)CO,-1.2101,0.0,1,G1
B-1413,"hexanedioic acid, dimethyl ester","InChI=1S/C8H14O4/c1-11-7(9)5-3-4-6-8(10)12-2/h3-6H2,1-2H3",UDSFAEKRVUSQDD-UHFFFAOYSA-N,COC(=O)CCCCC(=O)OC,-1.4629,0.0,1,G1
B-1415,ethyl propyl ether,"InChI=1S/C5H12O/c1-3-5-6-4-2/h3-5H2,1-2H3",NVJUHMXYKCUMQA-UHFFFAOYSA-N,CCCOCC,-0.6806,0.08278266055696015,3,G5
B-1417,"1,3-propanediol, diacetate","InChI=1S/C7H12O4/c1-6(8)10-4-3-5-11-7(2)9/h3-5H2,1-2H3",DSVGICPKBRQDDX-UHFFFAOYSA-N,CC(=O)OCCCOC(C)=O,-0.2046,0.0,1,G1
B-1421,n-tridecane,"InChI=1S/C13H28/c1-3-5-7-9-11-13-12-10-8-6-4-2/h3-13H2,1-2H3",IIYFAKIEWZDVMP-UHFFFAOYSA-N,CCCCCCCCCCCCC,-7.5936,0.0,1,G1
B-1423,n-pentadecane,"InChI=1S/C15H32/c1-3-5-7-9-11-13-15-14-12-10-8-6-4-2/h3-15H2,1-2H3",YCOZIPAWZNQLMR-UHFFFAOYSA-N,CCCCCCCCCCCCCCC,-9.4464,0.0,1,G1
B-1425,hexacosane,"InChI=1S/C26H54/c1-3-5-7-9-11-13-15-17-19-21-23-25-26-24-22-20-18-16-14-12-10-8-6-4-2/h3-26H2,1-2H3",HMSWAIKSFDFLKN-UHFFFAOYSA-N,CCCCCCCCCCCCCCCCCCCCCCCCCC,-8.3339,0.00804999999999989,2,G3