ID,Name,InChI,InChIKey,SMILES,Solubility,SD,Occurrences,Group
C-2124,"1-methyl-2-propyl-1,2,3,4-tetrahydro-2,4a,9-triazaanthracen-10-one","InChI=1S/C15H19N3O/c1-3-8-17-9-10-18-14(11(17)2)16-13-7-5-4-6-12(13)15(18)19/h4-7,11H,3,8-10H2,1-2H3",NOQKFJQTGOUYSP-UHFFFAOYSA-N,CCCN1CCN2C(=O)C3=C(C=CC=C3)N=C2C1C,-2.31,0.0,1,G1
C-2125,"(-)-(r)-1,2-bis(2,6-dioxopiperazin-4-yl)propane;  nsc-129943;  icrf 159;  razoxane (+/-)","InChI=1S/C11H16N4O4/c1-7(15-5-10(18)13-11(19)6-15)2-14-3-8(16)12-9(17)4-14/h7H,2-6H2,1H3,(H,12,16,17)(H,13,18,19)",BMKDZUISNHGIBY-UHFFFAOYSA-N,CC(CN1CC(=O)NC(=O)C1)N2CC(=O)NC(=O)C2,-1.27,0.0,1,G1
C-2126,"2,3,4',5-tetrachlorobiphenyl",InChI=1S/C12H6Cl4/c13-8-3-1-7(2-4-8)10-5-9(14)6-11(15)12(10)16/h1-6H,CITMYAMXIZQCJD-UHFFFAOYSA-N,ClC1=CC=C(C=C1)C2=C(Cl)C(=CC(=C2)Cl)Cl,-6.77,0.0,1,G1
C-2127,7-butyryltheophylline;  7-butanoyltheophylline,"InChI=1S/C11H14N4O3/c1-4-5-7(16)15-6-12-9-8(15)10(17)14(3)11(18)13(9)2/h6H,4-5H2,1-3H3",MZWAEHYAKJOENW-UHFFFAOYSA-N,CCCC(=O)[N]1C=NC2=C1C(=O)N(C)C(=O)N2C,-1.53,0.0,1,G1
C-2128,"2,3,3',4-tetrachlorobiphenyl",InChI=1S/C12H6Cl4/c13-8-3-1-2-7(6-8)9-4-5-10(14)12(16)11(9)15/h1-6H,ZKGSEEWIVLAUNH-UHFFFAOYSA-N,ClC1=CC(=CC=C1)C2=C(Cl)C(=C(Cl)C=C2)Cl,-6.77,0.0,1,G1
C-2129,prednisone-21-acetate,"InChI=1S/C23H28O6/c1-13(24)29-12-19(27)23(28)9-7-17-16-5-4-14-10-15(25)6-8-21(14,2)20(16)18(26)11-22(17,23)3/h6,8,10,16-17,20,28H,4-5,7,9,11-12H2,1-3H3",MOVRKLZUVNCBIP-UHFFFAOYSA-N,CC(=O)OCC(=O)C1(O)CCC2C3CCC4=CC(=O)C=CC4(C)C3C(=O)CC12C,-4.24,0.0,1,G1
C-2131,"3-(1-aziridinyl)-4,6-dinitro-(n-propyl)benzamide","InChI=1S/C12H14N4O5/c1-2-3-13-12(17)8-6-10(14-4-5-14)11(16(20)21)7-9(8)15(18)19/h6-7H,2-5H2,1H3,(H,13,17)",QTBORRHTRCJQKU-UHFFFAOYSA-N,CCCNC(=O)C1=CC(=C(C=C1[N+]([O-])=O)[N+]([O-])=O)N2CC2,-3.89,0.0,1,G1
C-2132,"2,3',4',6-tetrachlorobiphenyl",InChI=1S/C12H6Cl4/c13-8-5-4-7(6-11(8)16)12-9(14)2-1-3-10(12)15/h1-6H,WYVBETQIUHPLFO-UHFFFAOYSA-N,ClC1=CC=C(C=C1Cl)C2=C(Cl)C=CC=C2Cl,-7.02,0.0,1,G1
C-2133,"2,3',4,6-tetrachlorobiphenyl",InChI=1S/C12H6Cl4/c13-8-3-1-2-7(4-8)12-10(15)5-9(14)6-11(12)16/h1-6H,CKUBKYSLNCKBOI-UHFFFAOYSA-N,ClC1=CC(=CC=C1)C2=C(Cl)C=C(Cl)C=C2Cl,-7.15,0.0,1,G1
C-2134,equilenin,"InChI=1S/C18H18O2/c1-18-9-8-14-13-5-3-12(19)10-11(13)2-4-15(14)16(18)6-7-17(18)20/h2-5,10,16,19H,6-9H2,1H3",PDRGHUMCVRDZLQ-UHFFFAOYSA-N,CC12CCC3=C(C=CC4=C3C=CC(=C4)O)C1CCC2=O,-4.96,0.14000000000000012,2,G3
C-2135,"2,2',3,4'-tetrachlorobiphenyl",InChI=1S/C12H6Cl4/c13-7-4-5-8(11(15)6-7)9-2-1-3-10(14)12(9)16/h1-6H,ALFHIHDQSYXSGP-UHFFFAOYSA-N,ClC1=CC=C(C(=C1)Cl)C2=C(Cl)C(=CC=C2)Cl,-6.68,0.0,1,G1
C-2136,ketorolac,"InChI=1S/C15H13NO3/c17-14(10-4-2-1-3-5-10)13-7-6-12-11(15(18)19)8-9-16(12)13/h1-7,11H,8-9H2,(H,18,19)",OZWKMVRBQXNZKK-UHFFFAOYSA-N,OC(=O)C1CC[N]2C1=CC=C2C(=O)C3=CC=CC=C3,-1.65,0.0,1,G1
C-2137,cephradine,"InChI=1S/C16H19N3O4S/c1-8-7-24-15-11(14(21)19(15)12(8)16(22)23)18-13(20)10(17)9-5-3-2-4-6-9/h2-3,6,10-11,15H,4-5,7,17H2,1H3,(H,18,20)(H,22,23)",RDLPVSKMFDYCOR-UHFFFAOYSA-N,CC1=C(N2C(SC1)C(NC(=O)C(N)C3=CCC=CC3)C2=O)C(O)=O,-1.22,0.0,1,G1
C-2138,7-(ethoxycarboxymethyl)theophylline;  7-(ethoxycarbonyloxymethyl)theophylline,"InChI=1S/C11H14N4O5/c1-4-19-11(18)20-6-15-5-12-8-7(15)9(16)14(3)10(17)13(8)2/h5H,4,6H2,1-3H3",CRROIRSDBVLXGH-UHFFFAOYSA-N,CCOC(=O)OC[N]1C=NC2=C1C(=O)N(C)C(=O)N2C,-1.86,0.0,1,G1
C-2139,"3-(1-aziridinyl)-4,6-dinitro-(n-isopropyl)benzamide","InChI=1S/C12H14N4O5/c1-7(2)13-12(17)8-5-10(14-3-4-14)11(16(20)21)6-9(8)15(18)19/h5-7H,3-4H2,1-2H3,(H,13,17)",UNDIGYDOFLWDTF-UHFFFAOYSA-N,CC(C)NC(=O)C1=CC(=C(C=C1[N+]([O-])=O)[N+]([O-])=O)N2CC2,-3.5,0.0,1,G1
C-2140,"2,2',3,5-tetrachlorobiphenyl",InChI=1S/C12H6Cl4/c13-7-5-9(12(16)11(15)6-7)8-3-1-2-4-10(8)14/h1-6H,NRBNBYFPJCCKTO-UHFFFAOYSA-N,ClC1=CC(=C(Cl)C(=C1)Cl)C2=CC=CC=C2Cl,-6.23,0.0,1,G1
C-2141,7-(ethoxycarbonyl)theophylline,"InChI=1S/C10H12N4O4/c1-4-18-10(17)14-5-11-7-6(14)8(15)13(3)9(16)12(7)2/h5H,4H2,1-3H3",QSIIYGLZPGMUMS-UHFFFAOYSA-N,CCOC(=O)[N]1C=NC2=C1C(=O)N(C)C(=O)N2C,-1.65,0.0,1,G1
C-2142,"2-ethyl-1,4-dimethyl-1,2,3,4-tetrahydro-2,4a,9-triazaanthracen-10-one","InChI=1S/C15H19N3O/c1-4-17-9-10(2)18-14(11(17)3)16-13-8-6-5-7-12(13)15(18)19/h5-8,10-11H,4,9H2,1-3H3",LCXJKYZWJXSRIT-UHFFFAOYSA-N,CCN1CC(C)N2C(=O)C3=C(C=CC=C3)N=C2C1C,-2.46,0.0,1,G1
C-2143,4-(3-phenylureido)phenyl  acetate;  acetic acid 4-(3-phenylureido)phenyl ester,"InChI=1S/C15H14N2O3/c1-11(18)20-14-9-7-13(8-10-14)17-15(19)16-12-5-3-2-4-6-12/h2-10H,1H3,(H2,16,17,19)",HYDYEUKNONPEFM-UHFFFAOYSA-N,CC(=O)OC1=CC=C(NC(=O)NC2=CC=CC=C2)C=C1,-4.44,0.0,1,G1
C-2145,7-(propionyloxymethyl)theophylline;  7-(propanoyloxymethyl)theophylline,"InChI=1S/C11H14N4O4/c1-4-7(16)19-6-15-5-12-9-8(15)10(17)14(3)11(18)13(9)2/h5H,4,6H2,1-3H3",IMLOLBJKVGTVRZ-UHFFFAOYSA-N,CCC(=O)OC[N]1C=NC2=C1C(=O)N(C)C(=O)N2C,-2.3,0.0,1,G1
C-2146,pentoxifylline,"InChI=1S/C13H18N4O3/c1-9(18)6-4-5-7-17-12(19)10-11(14-8-15(10)2)16(3)13(17)20/h8H,4-7H2,1-3H3",BYPFEZZEUUWMEJ-UHFFFAOYSA-N,C[N]1C=NC2=C1C(=O)N(CCCCC(C)=O)C(=O)N2C,-0.56,0.0,1,G1
C-2147,menazon,"InChI=1S/C6H12N5O2PS2/c1-12-14(15,13-2)16-3-4-9-5(7)11-6(8)10-4/h3H2,1-2H3,(H4,7,8,9,10,11)",SUYHYHLFUHHVJQ-UHFFFAOYSA-N,CO[P](=S)(OC)SCC1=NC(=NC(=N1)N)N,-3.07,0.0,1,G1
C-2148,nifurtoinol;  3-(hydroxymethyl)nitrofurantoin,"InChI=1S/C9H8N4O6/c14-5-11-7(15)4-12(9(11)16)10-3-6-1-2-8(19-6)13(17)18/h1-3,14H,4-5H2/b10-3+",UIDWQGRXEVDFCA-XCVCLJGOSA-N,OCN1C(=O)CN(/N=C/C2=CC=C(O2)[N+]([O-])=O)C1=O,-2.91,0.0,1,G1
C-2149,2-(3-acetylphenylamino)benzoic acid,"InChI=1S/C15H13NO3/c1-10(17)11-5-4-6-12(9-11)16-14-8-3-2-7-13(14)15(18)19/h2-9,16H,1H3,(H,18,19)",URNBQFPUGNNQRC-UHFFFAOYSA-N,CC(=O)C1=CC=CC(=C1)NC2=CC=CC=C2C(O)=O,-4.86,0.0,1,G1
C-2150,"2,2',3,6'-tetrachlorobiphenyl",InChI=1S/C12H6Cl4/c13-8-4-2-5-9(14)11(8)7-3-1-6-10(15)12(7)16/h1-6H,CUGLICQCTXWQNF-UHFFFAOYSA-N,ClC1=CC=CC(=C1Cl)C2=C(Cl)C=CC=C2Cl,-6.3,0.0,1,G1
C-2151,"2,2',3,6-tetrachlorobiphenyl",InChI=1S/C12H6Cl4/c13-8-4-2-1-3-7(8)11-9(14)5-6-10(15)12(11)16/h1-6H,VHGHHZZTMJLTJX-UHFFFAOYSA-N,ClC1=CC=C(Cl)C(=C1Cl)C2=CC=CC=C2Cl,-6.3,0.0,1,G1
C-2152,cgp 65015;  (+)-3-hydroxy-1-(2-hydroxyethyl)-2-(alpha-hydroxybenzyl)-1h-pyridin-4-one,"InChI=1S/C14H15NO4/c16-9-8-15-7-6-11(17)14(19)12(15)13(18)10-4-2-1-3-5-10/h1-7,13,16,18-19H,8-9H2",ZMDGUPJAPMSCIZ-UHFFFAOYSA-N,OCCN1C=CC(=O)C(=C1C(O)C2=CC=CC=C2)O,-2.82,0.0,1,G1
C-2153,"3,3',4,4'-tetrachlorodiphenyl  ether",InChI=1S/C12H6Cl4O/c13-9-3-1-7(5-11(9)15)17-8-2-4-10(14)12(16)6-8/h1-6H,DHLVZXZRIZBPKG-UHFFFAOYSA-N,ClC1=C(Cl)C=C(OC2=CC=C(Cl)C(=C2)Cl)C=C1,-6.98,0.0,1,G1
C-2154,etodolac,"InChI=1S/C17H21NO3/c1-3-11-6-5-7-12-13-8-9-21-17(4-2,10-14(19)20)16(13)18-15(11)12/h5-7,18H,3-4,8-10H2,1-2H3,(H,19,20)",NNYBQONXHNTVIJ-UHFFFAOYSA-N,CCC1=CC=CC2=C1[NH]C3=C2CCOC3(CC)CC(O)=O,-3.31,0.0,1,G1
C-2155,"2-aminosulfonyl-5-methylsulfonamido-1,3,4-thiadiazole","InChI=1S/C3H6N4O4S3/c1-13(8,9)7-2-5-6-3(12-2)14(4,10)11/h1H3,(H,5,7)(H2,4,10,11)",OXRPANDQRBDMRL-UHFFFAOYSA-N,C[S](=O)(=O)NC1=NN=C(S1)[S](N)(=O)=O,-1.68,0.0,1,G1
C-2156,"sertraline;  (1s,4s)-4-(3,4-dichlorophenyl)-1,2,3,4-tetrahydro-n-methyl-1-naphthalenamine","InChI=1S/C17H17Cl2N/c1-20-17-9-7-12(13-4-2-3-5-14(13)17)11-6-8-15(18)16(19)10-11/h2-6,8,10,12,17,20H,7,9H2,1H3",VGKDLMBJGBXTGI-UHFFFAOYSA-N,CNC1CCC(C2=CC(=C(Cl)C=C2)Cl)C3=C1C=CC=C3,-5.23,0.0,1,G1
C-2157,2-[(4-phenylazophenyl)hydrazono]malononitrile,"InChI=1S/C15H10N6/c16-10-15(11-17)21-20-14-8-6-13(7-9-14)19-18-12-4-2-1-3-5-12/h1-9,20H",LDBWPTYGGBUCTJ-UHFFFAOYSA-N,N#CC(=NNC1=CC=C(C=C1)N=NC2=CC=CC=C2)C#N,-4.92,0.0,1,G1
C-2158,"3,4,4',5-tetrachlorodiphenyl  ether",InChI=1S/C12H6Cl4O/c13-7-1-3-8(4-2-7)17-9-5-10(14)12(16)11(15)6-9/h1-6H,CAUBBRCOHHHCNG-UHFFFAOYSA-N,ClC1=CC=C(OC2=CC(=C(Cl)C(=C2)Cl)Cl)C=C1,-7.35,0.0,1,G1
C-2159,"3,3',4,5'-tetrachlorodiphenyl  ether",InChI=1S/C12H6Cl4O/c13-7-3-8(14)5-10(4-7)17-9-1-2-11(15)12(16)6-9/h1-6H,BUPRSRBWDJVKGG-UHFFFAOYSA-N,ClC1=CC(=CC(=C1)OC2=CC=C(Cl)C(=C2)Cl)Cl,-7.32,0.0,1,G1
C-2160,7-pentanoyltheophylline,"InChI=1S/C12H16N4O3/c1-4-5-6-8(17)16-7-13-10-9(16)11(18)15(3)12(19)14(10)2/h7H,4-6H2,1-3H3",SJVQUFBQNJUYFR-UHFFFAOYSA-N,CCCCC(=O)[N]1C=NC2=C1C(=O)N(C)C(=O)N2C,-2.12,0.0,1,G1
C-2162,l-dopa benzyl ester,"InChI=1S/C16H17NO4/c17-13(8-12-6-7-14(18)15(19)9-12)16(20)21-10-11-4-2-1-3-5-11/h1-7,9,13,18-19H,8,10,17H2",KZQJKVJONMBQQU-UHFFFAOYSA-N,NC(CC1=CC(=C(O)C=C1)O)C(=O)OCC2=CC=CC=C2,-1.81,0.0,1,G1
C-2163,"2,3',4,4'-tetrachlorodiphenyl  ether",InChI=1S/C12H6Cl4O/c13-7-1-4-12(11(16)5-7)17-8-2-3-9(14)10(15)6-8/h1-6H,CAWSVYYOUZEMHA-UHFFFAOYSA-N,ClC1=CC=C(OC2=CC(=C(Cl)C=C2)Cl)C(=C1)Cl,-7.0,0.0,1,G1
C-2165,"2,4,4',5-tetrachlorodiphenyl  ether",InChI=1S/C12H6Cl4O/c13-7-1-3-8(4-2-7)17-12-6-10(15)9(14)5-11(12)16/h1-6H,KXOJXWNARBQHNX-UHFFFAOYSA-N,ClC1=CC=C(OC2=CC(=C(Cl)C=C2Cl)Cl)C=C1,-7.04,0.0,1,G1
C-2167,"1-chloro-2,4-dinitronaphthalene",InChI=1S/C10H5ClN2O4/c11-10-7-4-2-1-3-6(7)8(12(14)15)5-9(10)13(16)17/h1-5H,SKKUAUZTZZRYPW-UHFFFAOYSA-N,[O-][N+](=O)C1=C(Cl)C2=C(C=CC=C2)C(=C1)[N+]([O-])=O,-5.4,0.0,1,G1
C-2168,"dmpa;  o-(2,4-dichlorophenyl) o-methyl isopropylphosphoramidothioate","InChI=1S/C10H14Cl2NO2PS/c1-7(2)13-16(17,14-3)15-10-5-4-8(11)6-9(10)12/h4-7H,1-3H3,(H,13,17)",PJFGPJQBWSEWKX-UHFFFAOYSA-N,CO[P](=S)(NC(C)C)OC1=C(Cl)C=C(Cl)C=C1,-4.8,0.0,1,G1
C-2169,"3-(aziridin-1-yl)-4,6-dinitro-n-(isobutyl)benzamide","InChI=1S/C13H16N4O5/c1-8(2)7-14-13(18)9-5-11(15-3-4-15)12(17(21)22)6-10(9)16(19)20/h5-6,8H,3-4,7H2,1-2H3,(H,14,18)",RRIIHXZPZQGCGU-UHFFFAOYSA-N,CC(C)CNC(=O)C1=CC(=C(C=C1[N+]([O-])=O)[N+]([O-])=O)N2CC2,-3.85,0.0,1,G1
C-2171,"2,3',4,5'-tetrachlorodiphenyl  ether",InChI=1S/C12H6Cl4O/c13-7-1-2-12(11(16)6-7)17-10-4-8(14)3-9(15)5-10/h1-6H,XORVNHCKWFPDLN-UHFFFAOYSA-N,ClC1=CC=C(OC2=CC(=CC(=C2)Cl)Cl)C(=C1)Cl,-7.14,0.0,1,G1
C-2172,"2,3',4',5-tetrachlorodiphenyl  ether",InChI=1S/C12H6Cl4O/c13-7-1-3-10(15)12(5-7)17-8-2-4-9(14)11(16)6-8/h1-6H,MFTPXFIGIJCNJM-UHFFFAOYSA-N,ClC1=CC=C(Cl)C(=C1)OC2=CC=C(Cl)C(=C2)Cl,-7.07,0.0,1,G1
C-2173,"2,3,4,4'-tetrachlorodiphenyl  ether",InChI=1S/C12H6Cl4O/c13-7-1-3-8(4-2-7)17-10-6-5-9(14)11(15)12(10)16/h1-6H,ZPOBHUZRVVTGKB-UHFFFAOYSA-N,ClC1=CC=C(OC2=CC=C(Cl)C(=C2Cl)Cl)C=C1,-7.01,0.0,1,G1
C-2174,5'-propanoylidoxuridine; 5'-propanoyl-5-iodo-2'-deoxyuridine; 5'-propanoyl-idu,"InChI=1S/C12H15IN2O6/c1-2-10(17)20-5-8-7(16)3-9(21-8)15-4-6(13)11(18)14-12(15)19/h4,7-9,16H,2-3,5H2,1H3,(H,14,18,19)",DJVMRHACLIROPJ-UHFFFAOYSA-N,CCC(=O)OCC1OC(CC1O)N2C=C(I)C(=O)NC2=O,-2.46,0.0,1,G1
C-2175,"2,3,4',5-tetrachlorodiphenyl  ether",InChI=1S/C12H6Cl4O/c13-7-1-3-9(4-2-7)17-11-6-8(14)5-10(15)12(11)16/h1-6H,YHQRYZGDQCSHFO-UHFFFAOYSA-N,ClC1=CC=C(OC2=CC(=CC(=C2Cl)Cl)Cl)C=C1,-7.14,0.0,1,G1
C-2176,"2,3,3',4'-tetrachlorodiphenyl  ether",InChI=1S/C12H6Cl4O/c13-8-5-4-7(6-10(8)15)17-11-3-1-2-9(14)12(11)16/h1-6H,JVFGXWCLGNACOG-UHFFFAOYSA-N,ClC1=C(Cl)C=C(OC2=CC=CC(=C2Cl)Cl)C=C1,-6.9,0.0,1,G1
C-2177,7-(pivaloyloxymethyl)theophylline (viii),"InChI=1S/C13H18N4O4/c1-13(2,3)11(19)21-7-17-6-14-9-8(17)10(18)16(5)12(20)15(9)4/h6H,7H2,1-5H3",BFABOEKGZASJFN-UHFFFAOYSA-N,CN1C(=O)N(C)C2=C([N](COC(=O)C(C)(C)C)C=N2)C1=O,-2.17,0.0,1,G1
C-2178,"2,3',4,5-tetrachlorodiphenyl  ether",InChI=1S/C12H6Cl4O/c13-7-2-1-3-8(4-7)17-12-6-10(15)9(14)5-11(12)16/h1-6H,QDQGECFQVPRMEO-UHFFFAOYSA-N,ClC1=CC=CC(=C1)OC2=CC(=C(Cl)C=C2Cl)Cl,-7.27,0.0,1,G1
C-2179,"2,4,4',6-tetrachlorodiphenyl  ether",InChI=1S/C12H6Cl4O/c13-7-1-3-9(4-2-7)17-12-10(15)5-8(14)6-11(12)16/h1-6H,YCWRSOTXXJYCKF-UHFFFAOYSA-N,ClC1=CC=C(OC2=C(Cl)C=C(Cl)C=C2Cl)C=C1,-6.83,0.0,1,G1
C-2180,n-(3'-nitrophenyl)anthranilic  acid;  3'-nitrofenamic acid,"InChI=1S/C13H10N2O4/c16-13(17)11-6-1-2-7-12(11)14-9-4-3-5-10(8-9)15(18)19/h1-8,14H,(H,16,17)",NBJRFLIUYUFOIR-UHFFFAOYSA-N,OC(=O)C1=CC=CC=C1NC2=CC(=CC=C2)[N+]([O-])=O,-6.43,0.0,1,G1
C-2181,"2,3,3',4-tetrachlorodiphenyl  ether",InChI=1S/C12H6Cl4O/c13-7-2-1-3-8(6-7)17-10-5-4-9(14)11(15)12(10)16/h1-6H,IZISEKJPNSBPRX-UHFFFAOYSA-N,ClC1=CC=CC(=C1)OC2=CC=C(Cl)C(=C2Cl)Cl,-7.09,0.0,1,G1
C-2182,"2,2',4,5'-tetrachlorodiphenyl  ether",InChI=1S/C12H6Cl4O/c13-7-2-4-11(10(16)5-7)17-12-6-8(14)1-3-9(12)15/h1-6H,XIXPEFLLHQAIOY-UHFFFAOYSA-N,ClC1=CC=C(OC2=C(Cl)C=CC(=C2)Cl)C(=C1)Cl,-6.77,0.0,1,G1
C-2184,7-(propoxycarbonyl)theophylline,"InChI=1S/C11H14N4O4/c1-4-5-19-11(18)15-6-12-8-7(15)9(16)14(3)10(17)13(8)2/h6H,4-5H2,1-3H3",QIBCKFKIAKARGI-UHFFFAOYSA-N,CCCOC(=O)[N]1C=NC2=C1C(=O)N(C)C(=O)N2C,-1.45,0.0,1,G1
C-2185,"2,3',4',6-tetrachlorodiphenyl  ether",InChI=1S/C12H6Cl4O/c13-8-5-4-7(6-11(8)16)17-12-9(14)2-1-3-10(12)15/h1-6H,IZZULMOBRTYHMH-UHFFFAOYSA-N,ClC1=C(Cl)C=C(OC2=C(Cl)C=CC=C2Cl)C=C1,-6.56,0.0,1,G1
C-2186,"2,2',3,4'-tetrachlorodiphenyl  ether",InChI=1S/C12H6Cl4O/c13-7-4-5-10(9(15)6-7)17-11-3-1-2-8(14)12(11)16/h1-6H,UYVBJPIPRAJEKW-UHFFFAOYSA-N,ClC1=CC(=C(OC2=CC=CC(=C2Cl)Cl)C=C1)Cl,-6.65,0.0,1,G1
C-2187,"1,4-dimethyl-2-propyl-1,2,3,4-tetrahydro-2,4a,9-triazaanthracen-10-one","InChI=1S/C16H21N3O/c1-4-9-18-10-11(2)19-15(12(18)3)17-14-8-6-5-7-13(14)16(19)20/h5-8,11-12H,4,9-10H2,1-3H3",CRLNRRULCQXUML-UHFFFAOYSA-N,CCCN1CC(C)N2C(=O)C3=C(C=CC=C3)N=C2C1C,-2.24,0.0,1,G1
C-2188,"2,3,4',6-tetrachlorodiphenyl  ether",InChI=1S/C12H6Cl4O/c13-7-1-3-8(4-2-7)17-12-10(15)6-5-9(14)11(12)16/h1-6H,HJCNTJIMUWQMSA-UHFFFAOYSA-N,ClC1=CC=C(OC2=C(Cl)C=CC(=C2Cl)Cl)C=C1,-6.64,0.0,1,G1
C-2190,"3-(aziridin-1-yl)-4,6-dinitro-n-(tert-butyl)benzamide","InChI=1S/C13H16N4O5/c1-13(2,3)14-12(18)8-6-10(15-4-5-15)11(17(21)22)7-9(8)16(19)20/h6-7H,4-5H2,1-3H3,(H,14,18)",NJDKQHDDTBKDER-UHFFFAOYSA-N,CC(C)(C)NC(=O)C1=CC(=C(C=C1[N+]([O-])=O)[N+]([O-])=O)N2CC2,-3.17,0.0,1,G1
C-2191,7-(butyryloxymethyl)theophylline;  7-(butanoyloxymethyl)theophylline,"InChI=1S/C12H16N4O4/c1-4-5-8(17)20-7-16-6-13-10-9(16)11(18)15(3)12(19)14(10)2/h6H,4-5,7H2,1-3H3",BCXKOIICQXXQJZ-UHFFFAOYSA-N,CCCC(=O)OC[N]1C=NC2=C1C(=O)N(C)C(=O)N2C,-1.86,0.0,1,G1
C-2192,"2,2',4,5-tetrachlorodiphenyl  ether",InChI=1S/C12H6Cl4O/c13-7-3-1-2-4-11(7)17-12-6-9(15)8(14)5-10(12)16/h1-6H,DRVAMLZVBNYSQE-UHFFFAOYSA-N,ClC1=C(OC2=CC(=C(Cl)C=C2Cl)Cl)C=CC=C1,-7.0,0.0,1,G1
C-2194,"2,2',3,4-tetrachlorodiphenyl  ether",InChI=1S/C12H6Cl4O/c13-7-3-1-2-4-9(7)17-10-6-5-8(14)11(15)12(10)16/h1-6H,VTTDWGUAWMLHPR-UHFFFAOYSA-N,ClC1=CC=C(OC2=C(Cl)C=CC=C2)C(=C1Cl)Cl,-6.74,0.0,1,G1
C-2195,1-(2-methylmorpholin-4-yl)sulfonyl-3-(6-bicyclo[2.2.1]-2-heptenylmethyl)urea,"InChI=1S/C14H23N3O4S/c1-10-9-17(4-5-21-10)22(19,20)16-14(18)15-8-13-7-11-2-3-12(13)6-11/h2-3,10-13H,4-9H2,1H3,(H2,15,16,18)",FKKUGJURZVYUBG-UHFFFAOYSA-N,CC1CN(CCO1)[S](=O)(=O)NC(=O)NCC2CC3CC2C=C3,-2.26,0.0,1,G1
C-2196,"2,3,4,5-tetrachlorodiphenyl  ether",InChI=1S/C12H6Cl4O/c13-8-6-9(11(15)12(16)10(8)14)17-7-4-2-1-3-5-7/h1-6H,QAPPZLVGIXQUJW-UHFFFAOYSA-N,ClC1=C(Cl)C(=C(Cl)C(=C1)OC2=CC=CC=C2)Cl,-7.52,0.0,1,G1
C-2197,"3-(aziridin-1-yl)-4,6-dinitro-n,n-(diethyl)benzamide","InChI=1S/C13H16N4O5/c1-3-14(4-2)13(18)9-7-11(15-5-6-15)12(17(21)22)8-10(9)16(19)20/h7-8H,3-6H2,1-2H3",OTDNTVFTLSWXLS-UHFFFAOYSA-N,CCN(CC)C(=O)C1=CC(=C(C=C1[N+]([O-])=O)[N+]([O-])=O)N2CC2,-2.59,0.0,1,G1
C-2198,methyl 2-chloro-9-hydroxyfluorene-9-carboxylate;  chlorflurecol-methyl,"InChI=1S/C15H11ClO3/c1-19-14(17)15(18)12-5-3-2-4-10(12)11-7-6-9(16)8-13(11)15/h2-8,18H,1H3",LINPVWIEWJTEEJ-UHFFFAOYSA-N,COC(=O)C1(O)C2=C(C=CC=C2)C3=C1C=C(Cl)C=C3,-4.18,0.0,1,G1
C-2199,(+)-pancratistatin,"InChI=1S/C14H15NO8/c16-8-5-3-1-4-13(23-2-22-4)9(17)6(3)14(21)15-7(5)10(18)12(20)11(8)19/h1,5,7-8,10-12,16-20H,2H2,(H,15,21)",VREZDOWOLGNDPW-UHFFFAOYSA-N,OC1C(O)C(O)C2C(NC(=O)C3=C(O)C4=C(OCO4)C=C23)C1O,-3.8,0.0,1,G1
C-2200,"2,3,4,6-tetrachlorodiphenyl  ether",InChI=1S/C12H6Cl4O/c13-8-6-9(14)12(11(16)10(8)15)17-7-4-2-1-3-5-7/h1-6H,WJZPRRFFZWVZJL-UHFFFAOYSA-N,ClC1=C(Cl)C(=C(OC2=CC=CC=C2)C(=C1)Cl)Cl,-7.06,0.0,1,G1
C-2201,flumequine,"InChI=1S/C14H12FNO3/c1-7-2-3-8-4-9(15)5-10-12(8)16(7)6-11(13(10)17)14(18)19/h4-7H,2-3H2,1H3,(H,18,19)",DPSPPJIUMHPXMA-UHFFFAOYSA-N,CC1CCC2=CC(=CC3=C2N1C=C(C(O)=O)C3=O)F,-3.74,0.0050000000000001155,2,G3
C-2202,"2,3,5,6-tetrachlorodiphenyl  ether",InChI=1S/C12H6Cl4O/c13-8-6-9(14)11(16)12(10(8)15)17-7-4-2-1-3-5-7/h1-6H,UFGXCDQXRUFDMA-UHFFFAOYSA-N,ClC1=C(Cl)C(=C(Cl)C(=C1)Cl)OC2=CC=CC=C2,-7.02,0.0,1,G1
C-2203,"bentranil;  2-phenyl-3,1-benzoxazin-4-one;  2-phenylbenzo[d][1,3]oxazin-4-one",InChI=1S/C14H9NO2/c16-14-11-8-4-5-9-12(11)15-13(17-14)10-6-2-1-3-7-10/h1-9H,HTTLBYITFHMYFK-UHFFFAOYSA-N,O=C1OC(=NC2=C1C=CC=C2)C3=CC=CC=C3,-4.61,0.0,1,G1
C-2204,7-(butoxycarbonyl)theophylline,"InChI=1S/C12H16N4O4/c1-4-5-6-20-12(19)16-7-13-9-8(16)10(17)15(3)11(18)14(9)2/h7H,4-6H2,1-3H3",NVWQRLZUBQMAOX-UHFFFAOYSA-N,CCCCOC(=O)[N]1C=NC2=C1C(=O)N(C)C(=O)N2C,-1.93,0.0,1,G1
C-2205,7-(pentanoyloxymethyl)theophylline,"InChI=1S/C13H18N4O4/c1-4-5-6-9(18)21-8-17-7-14-11-10(17)12(19)16(3)13(20)15(11)2/h7H,4-6,8H2,1-3H3",YWTLHUJMKYJQNI-UHFFFAOYSA-N,CCCCC(=O)OC[N]1C=NC2=C1C(=O)N(C)C(=O)N2C,-2.37,0.0,1,G1
C-2206,"5-creatinylamido-2-sulfamoyl-1,3,4-thiadiazole","InChI=1S/C6H11N7O3S2/c1-13(4(7)8)2-3(14)10-5-11-12-6(17-5)18(9,15)16/h2H2,1H3,(H3,7,8)(H2,9,15,16)(H,10,11,14)",UGKZABQBFUBOFG-UHFFFAOYSA-N,CN(CC(=O)NC1=NN=C(S1)[S](N)(=O)=O)C(N)=N,-1.14,0.0,1,G1
C-2207,binapacril;  acricid;  endosan,"InChI=1S/C15H18N2O6/c1-5-10(4)12-7-11(16(19)20)8-13(17(21)22)15(12)23-14(18)6-9(2)3/h6-8,10H,5H2,1-4H3",ZRDUSMYWDRPZRM-UHFFFAOYSA-N,CCC(C)C1=C(OC(=O)C=C(C)C)C(=CC(=C1)[N+]([O-])=O)[N+]([O-])=O,-5.51,0.0,1,G1
C-2208,chlorzoxazone-n-methyl hemisuccinate,"InChI=1S/C12H10ClNO6/c13-7-1-2-9-8(5-7)14(12(18)20-9)6-19-11(17)4-3-10(15)16/h1-2,5H,3-4,6H2,(H,15,16)",IRAKAHJFDQRYNL-UHFFFAOYSA-N,OC(=O)CCC(=O)OCN1C(=O)OC2=CC=C(Cl)C=C12,-3.41,0.0,1,G1
C-2209,tebupirimfos,"InChI=1S/C13H23N2O3PS/c1-7-16-19(20,17-10(2)3)18-11-8-14-12(15-9-11)13(4,5)6/h8-10H,7H2,1-6H3",AWYOMXWDGWUJHS-UHFFFAOYSA-N,CCO[P](=S)(OC(C)C)OC1=CN=C(N=C1)C(C)(C)C,-4.76,0.0,1,G1
C-2210,(+/-)-etaconazole; sonax,"InChI=1S/C14H15Cl2N3O2/c1-2-11-6-20-14(21-11,7-19-9-17-8-18-19)12-4-3-10(15)5-13(12)16/h3-5,8-9,11H,2,6-7H2,1H3",DWRKFAJEBUWTQM-UHFFFAOYSA-N,CCC1COC(C[N]2C=NC=N2)(O1)C3=CC=C(Cl)C=C3Cl,-3.61,0.0,1,G1
C-2211,cinchoninone,"InChI=1S/C19H20N2O/c1-2-13-12-21-10-8-14(13)11-18(21)19(22)16-7-9-20-17-6-4-3-5-15(16)17/h2-7,9,13-14,18H,1,8,10-12H2",AEFOLTVWSRMXMW-UHFFFAOYSA-N,C=CC1CN2CCC1CC2C(=O)C3=CC=NC4=C3C=CC=C4,-3.19,0.0,1,G1
C-2212,"1-[3-(aziridin-1-yl)-4,6-dinitrobenzoyl]piperidine","InChI=1S/C14H16N4O5/c19-14(16-4-2-1-3-5-16)10-8-12(15-6-7-15)13(18(22)23)9-11(10)17(20)21/h8-9H,1-7H2",DFFPUVDMNIWTAL-UHFFFAOYSA-N,[O-][N+](=O)C1=C(C=C(C(=O)N2CCCCC2)C(=C1)[N+]([O-])=O)N3CC3,-3.17,0.0,1,G1
C-2213,"2,3',4,5,5'-pentachlorobiphenyl",InChI=1S/C12H5Cl5/c13-7-1-6(2-8(14)3-7)9-4-11(16)12(17)5-10(9)15/h1-5H,ZLGYJAIAVPVCNF-UHFFFAOYSA-N,ClC1=CC(=CC(=C1)Cl)C2=CC(=C(Cl)C=C2Cl)Cl,-7.47,0.0,1,G1
C-2214,"2',3,4,5,5'-pentachlorobiphenyl",InChI=1S/C12H5Cl5/c13-7-1-2-9(14)8(5-7)6-3-10(15)12(17)11(16)4-6/h1-5H,PIVBPZFQXKMHBD-UHFFFAOYSA-N,ClC1=CC(=C(Cl)C=C1)C2=CC(=C(Cl)C(=C2)Cl)Cl,-7.32,0.0,1,G1
C-2215,"8,9,10,11-tetrahydro-7-methyl-1,2-benzanthracene; 8,9,10,11-tetrahydro-7-methyl-benz[a]anthracene","InChI=1S/C19H18/c1-13-16-8-4-3-7-15(16)12-19-17(13)11-10-14-6-2-5-9-18(14)19/h2,5-6,9-12H,3-4,7-8H2,1H3",XGQBUGNCZRJKJR-UHFFFAOYSA-N,CC1=C2C=CC3=C(C=CC=C3)C2=CC4=C1CCCC4,-6.75,0.0,1,G1
C-2216,"2,3',4,4',6-pentachlorobiphenyl",InChI=1S/C12H5Cl5/c13-7-4-10(16)12(11(17)5-7)6-1-2-8(14)9(15)3-6/h1-5H,OAEQTHQGPZKTQP-UHFFFAOYSA-N,ClC1=CC(=C(C(=C1)Cl)C2=CC=C(Cl)C(=C2)Cl)Cl,-7.91,0.0,1,G1
C-2217,7-(hexanoyloxymethyl)theophylline,"InChI=1S/C14H20N4O4/c1-4-5-6-7-10(19)22-9-18-8-15-12-11(18)13(20)17(3)14(21)16(12)2/h8H,4-7,9H2,1-3H3",UXSMYWBTLMYEGK-UHFFFAOYSA-N,CCCCCC(=O)OC[N]1C=NC2=C1C(=O)N(C)C(=O)N2C,-2.64,0.0,1,G1
C-2218,6-acetyloxymethylthio-9-acetyloxymethylpurine,"InChI=1S/C11H12N4O4S/c1-7(16)18-5-15-4-14-9-10(15)12-3-13-11(9)20-6-19-8(2)17/h3-4H,5-6H2,1-2H3",BGNHXVMZTVHITP-UHFFFAOYSA-N,CC(=O)OCSC1=NC=NC2=C1N=C[N]2COC(C)=O,-2.54,0.0,1,G1
C-2219,"2',3,3',4,5-pentachlorobiphenyl",InChI=1S/C12H5Cl5/c13-8-3-1-2-7(11(8)16)6-4-9(14)12(17)10(15)5-6/h1-5H,GWOWBISZHLPYEK-UHFFFAOYSA-N,ClC1=CC=CC(=C1Cl)C2=CC(=C(Cl)C(=C2)Cl)Cl,-7.41,0.0,1,G1
C-2220,"n-[3-(aziridin-1-yl)-4,6-dinitrobenzoyl]morpholine","InChI=1S/C13H14N4O6/c18-13(15-3-5-23-6-4-15)9-7-11(14-1-2-14)12(17(21)22)8-10(9)16(19)20/h7-8H,1-6H2",LUZNBBPGOHLPBY-UHFFFAOYSA-N,[O-][N+](=O)C1=C(C=C(C(=O)N2CCOCC2)C(=C1)[N+]([O-])=O)N3CC3,-2.89,0.0,1,G1