ID,Name,InChI,InChIKey,SMILES,Solubility,SD,Occurrences,Group
C-971,"n1-(2,4,5-trichlorophenyl)sulfanilamide;  1-sulfa-2,4,5-trichlorobenzene","InChI=1S/C12H9Cl3N2O2S/c13-9-5-11(15)12(6-10(9)14)17-20(18,19)8-3-1-7(16)2-4-8/h1-6,17H,16H2",NAEQJWFRAJVALC-UHFFFAOYSA-N,NC1=CC=C(C=C1)[S](=O)(=O)NC2=C(Cl)C=C(Cl)C(=C2)Cl,-4.83,0.0,1,G1
C-973,"n-(2,4-dibromophenyl)benzenesulfonamide","InChI=1S/C12H9Br2NO2S/c13-9-6-7-12(11(14)8-9)15-18(16,17)10-4-2-1-3-5-10/h1-8,15H",KVYZUAZCQPQRPI-UHFFFAOYSA-N,BrC1=CC=C(N[S](=O)(=O)C2=CC=CC=C2)C(=C1)Br,-5.01,0.0,1,G1
C-974,hexachlorophene,"InChI=1S/C13H6Cl6O2/c14-6-2-8(16)12(20)4(10(6)18)1-5-11(19)7(15)3-9(17)13(5)21/h2-3,20-21H,1H2",ACGUYXCXAPNIKK-UHFFFAOYSA-N,OC1=C(CC2=C(O)C(=CC(=C2Cl)Cl)Cl)C(=C(Cl)C=C1Cl)Cl,-3.46,0.0,1,G1
C-975,nuarimol,"InChI=1S/C17H12ClFN2O/c18-16-4-2-1-3-15(16)17(22,13-9-20-11-21-10-13)12-5-7-14(19)8-6-12/h1-11,22H",SAPGTCDSBGMXCD-UHFFFAOYSA-N,OC(C1=CC=C(F)C=C1)(C2=CN=CN=C2)C3=C(Cl)C=CC=C3,-4.08,0.0,1,G1
C-976,chlorothiazide,"InChI=1S/C7H6ClN3O4S2/c8-4-1-5-7(2-6(4)16(9,12)13)17(14,15)11-3-10-5/h1-3H,(H,10,11)(H2,9,12,13)",JBMKAUGHUNFTOL-UHFFFAOYSA-N,N[S](=O)(=O)C1=CC2=C(C=C1Cl)N=CN[S]2(=O)=O,-2.92,0.06499999999999995,2,G3
C-979,"6-hydroxy-6,7-dihydro-5h-2-sulfamoylthieno[3,2-b]thiopyran-4,4-dioxide","InChI=1S/C7H9NO5S3/c8-16(12,13)7-2-6-5(14-7)1-4(9)3-15(6,10)11/h2,4,9H,1,3H2,(H2,8,12,13)",ZGRYQDHDZGJMNF-UHFFFAOYSA-N,N[S](=O)(=O)C1=CC2=C(CC(O)C[S]2(=O)=O)S1,-1.59,0.0,1,G1
C-980,"3-pentanoyloxymethylphenytoin;  5,5-diphenyl-3-pentanoyloxymethylhydantoin","InChI=1S/C21H22N2O4/c1-2-3-14-18(24)27-15-23-19(25)21(22-20(23)26,16-10-6-4-7-11-16)17-12-8-5-9-13-17/h4-13H,2-3,14-15H2,1H3,(H,22,26)",XCEYNQCFXXAOBL-UHFFFAOYSA-N,CCCCC(=O)OCN1C(=O)NC(C1=O)(C2=CC=CC=C2)C3=CC=CC=C3,-4.68,0.0,1,G1
C-981,"5-hydroxy-5,6-dihydro-4h-2-sulfamoylthieno[2,3-b]thiopyran-7,7-dioxide","InChI=1S/C7H9NO5S3/c8-16(12,13)6-2-4-1-5(9)3-15(10,11)7(4)14-6/h2,5,9H,1,3H2,(H2,8,12,13)",APTGDJCKNMNFID-UHFFFAOYSA-N,N[S](=O)(=O)C1=CC2=C(S1)[S](=O)(=O)CC(O)C2,-1.54,0.0,1,G1
C-982,"5,6-dihydro-2-sulfamoylthieno[3,2-b]thiopyran-4,4-dioxide-7-one","InChI=1S/C7H7NO5S3/c8-16(12,13)6-3-5-7(14-6)4(9)1-2-15(5,10)11/h3H,1-2H2,(H2,8,12,13)",HYVMOJOTZLNZPF-UHFFFAOYSA-N,N[S](=O)(=O)C1=CC2=C(S1)C(=O)CC[S]2(=O)=O,-3.67,0.0,1,G1
C-983,"7-hydroxy-6,7-dihydro-5h-2-sulfamoylthieno[3,2-b]thiopyran-4,4-dioxide","InChI=1S/C7H9NO5S3/c8-16(12,13)6-3-5-7(14-6)4(9)1-2-15(5,10)11/h3-4,9H,1-2H2,(H2,8,12,13)",LNVGTRNKWNAINT-UHFFFAOYSA-N,N[S](=O)(=O)C1=CC2=C(S1)C(O)CC[S]2(=O)=O,-1.28,0.0,1,G1
C-984,n-propylthalidomide,"InChI=1S/C16H16N2O4/c1-2-9-17-13(19)8-7-12(16(17)22)18-14(20)10-5-3-4-6-11(10)15(18)21/h3-6,12H,2,7-9H2,1H3",LYIKHGOXEXNKEV-UHFFFAOYSA-N,CCCN1C(=O)CCC(N2C(=O)C3=C(C=CC=C3)C2=O)C1=O,-3.72,0.0,1,G1
C-985,"5,6-dihydro-2-sulfamoylthieno[2,3-b]thiopyran-7,7-dioxide-4-one","InChI=1S/C7H7NO5S3/c8-16(12,13)6-3-4-5(9)1-2-15(10,11)7(4)14-6/h3H,1-2H2,(H2,8,12,13)",BGNCCUHEGHNNAP-UHFFFAOYSA-N,N[S](=O)(=O)C1=CC2=C(S1)[S](=O)(=O)CCC2=O,-3.02,0.0,1,G1
C-987,warfarin (hemiketal-isomer),"InChI=1S/C19H16O4/c1-19(21)11-14(12-7-3-2-4-8-12)16-17(23-19)13-9-5-6-10-15(13)22-18(16)20/h2-10,14,21H,11H2,1H3",LSCYDZJASSKSMJ-UHFFFAOYSA-N,CC1(O)CC(C2=CC=CC=C2)C3=C(O1)C4=C(OC3=O)C=CC=C4,-4.74,0.0,1,G1
C-988,3-methylcholanthrene,"InChI=1S/C21H16/c1-13-6-7-15-12-20-17-5-3-2-4-14(17)8-9-18(20)19-11-10-16(13)21(15)19/h2-9,12H,10-11H2,1H3",PPQNQXQZIWHJRB-UHFFFAOYSA-N,CC1=C2CCC3=C2C(=CC4=C3C=CC5=C4C=CC=C5)C=C1,-7.96,0.020000000000000018,2,G3
C-989,cephalothin,"InChI=1S/C16H16N2O6S2/c1-8(19)24-6-9-7-26-15-12(14(21)18(15)13(9)16(22)23)17-11(20)5-10-3-2-4-25-10/h2-4,12,15H,5-7H2,1H3,(H,17,20)(H,22,23)",XIURVHNZVLADCM-UHFFFAOYSA-N,CC(=O)OCC1=C(N2C(SC1)C(NC(=O)CC3=CC=CS3)C2=O)C(O)=O,-2.94,0.0,1,G1
C-991,Erythromycin stearate,"InChI=1S/C37H67NO13/c1-14-25-37(10,45)30(41)20(4)27(39)18(2)16-35(8,44)32(51-34-28(40)24(38(11)12)15-19(3)47-34)21(5)29(22(6)33(43)49-25)50-26-17-36(9,46-13)31(42)23(7)48-26/h18-26,28-32,34,40-42,44-45H,14-17H2,1-13H3",ULGZDMOVFRHVEP-UHFFFAOYSA-N,CCC1OC(=O)C(C)C(OC2CC(C)(OC)C(O)C(C)O2)C(C)C(OC3OC(C)CC(C3O)N(C)C)C(C)(O)CC(C)C(=O)C(C)C(O)C1(C)O,-1.27,0.0,1,G1
C-993,chlorthalidone,"InChI=1S/C14H11ClN2O4S/c15-11-6-5-8(7-12(11)22(16,20)21)14(19)10-4-2-1-3-9(10)13(18)17-14/h1-7,19H,(H,17,18)(H2,16,20,21)",JIVPVXMEBJLZRO-UHFFFAOYSA-N,N[S](=O)(=O)C1=CC(=CC=C1Cl)C2(O)NC(=O)C3=C2C=CC=C3,-3.45,0.0,1,G1
C-994,2-hydroxy-4-(3-methyl-5-pentylisoxazol-4-ylimino)-4h-naphthalen-1-one,"InChI=1S/C19H20N2O3/c1-3-4-5-10-17-18(12(2)21-24-17)20-15-11-16(22)19(23)14-9-7-6-8-13(14)15/h6-9,11,22H,3-5,10H2,1-2H3",UVDMLIMKZIIZSL-UHFFFAOYSA-N,CCCCCC1=C(N=C2C=C(O)C(=O)C3=C2C=CC=C3)C(=NO1)C,-3.18,0.0,1,G1
C-995,benzoximate,"InChI=1S/C18H18ClNO5/c1-4-24-20-17(25-18(21)12-8-6-5-7-9-12)15-14(22-2)11-10-13(19)16(15)23-3/h5-11H,4H2,1-3H3/b20-17-",BZMIHNKNQJJVRO-JZJYNLBNSA-N,CCO/N=C(OC(=O)C1=CC=CC=C1)/C2=C(OC)C(=CC=C2OC)Cl,-4.08,0.0,1,G1
C-997,terazosin,"InChI=1S/C19H25N5O4/c1-26-15-10-12-13(11-16(15)27-2)21-19(22-17(12)20)24-7-5-23(6-8-24)18(25)14-4-3-9-28-14/h10-11,14H,3-9H2,1-2H3,(H2,20,21,22)",VCKUSRYTPJJLNI-UHFFFAOYSA-N,COC1=CC2=C(C=C1OC)C(=NC(=N2)N3CCN(CC3)C(=O)C4CCCO4)N,-1.8,0.0,1,G1
C-998,"azo dye n2;  5-(4-chloro-2-nitrophenylazo)-1-ethyl-6-hydroxy-4-methyl-2-oxo-1,2-dihydropyridine-3-carbonitrile","InChI=1S/C15H12ClN5O4/c1-3-20-14(22)10(7-17)8(2)13(15(20)23)19-18-11-5-4-9(16)6-12(11)21(24)25/h4-6,23H,3H2,1-2H3",BBVOMHRLNCRXRH-UHFFFAOYSA-N,CCN1C(=C(N=NC2=C(C=C(Cl)C=C2)[N+]([O-])=O)C(=C(C#N)C1=O)C)O,-6.69,0.0,1,G1
C-999,methotrimeprazine;  levomepromazine,"InChI=1S/C19H24N2OS/c1-14(12-20(2)3)13-21-16-7-5-6-8-18(16)23-19-10-9-15(22-4)11-17(19)21/h5-11,14H,12-13H2,1-4H3",VRQVVMDWGGWHTJ-UHFFFAOYSA-N,COC1=CC2=C(SC3=C(C=CC=C3)N2CC(C)CN(C)C)C=C1,-4.37,0.07500000000000018,2,G3
C-1000,"2,2',3,3',5,5',6,6'-octachlorobiphenyl",InChI=1S/C12H2Cl8/c13-3-1-4(14)10(18)7(9(3)17)8-11(19)5(15)2-6(16)12(8)20/h1-2H,JPOPEORRMSDUIP-UHFFFAOYSA-N,ClC1=C(Cl)C(=C(Cl)C(=C1)Cl)C2=C(Cl)C(=CC(=C2Cl)Cl)Cl,-9.38,0.13339665163214084,3,G5
C-1001,clarithromycin,"InChI=1S/C38H69NO13/c1-15-26-38(10,45)31(42)21(4)28(40)19(2)17-37(9,47-14)33(52-35-29(41)25(39(11)12)16-20(3)48-35)22(5)30(23(6)34(44)50-26)51-27-18-36(8,46-13)32(43)24(7)49-27/h19-27,29-33,35,41-43,45H,15-18H2,1-14H3",AGOYDEPGAOXOCK-UHFFFAOYSA-N,CCC1OC(=O)C(C)C(OC2CC(C)(OC)C(O)C(C)O2)C(C)C(OC3OC(C)CC(C3O)N(C)C)C(C)(CC(C)C(=O)C(C)C(O)C1(C)O)OC,-2.2,0.0,1,G1
C-1002,xipamide,"InChI=1S/C15H15ClN2O4S/c1-8-4-3-5-9(2)14(8)18-15(20)10-6-13(23(17,21)22)11(16)7-12(10)19/h3-7,19H,1-2H3,(H,18,20)(H2,17,21,22)",MTZBBNMLMNBNJL-UHFFFAOYSA-N,CC1=C(NC(=O)C2=CC(=C(Cl)C=C2O)[S](N)(=O)=O)C(=CC=C1)C,-3.9,0.05499999999999994,2,G3
C-1003,n-(4-acetamidopyridin-3-yl)-4-nitrobenzenesulfonamide; 4-acetylamino-3-(4-nitrophenylsulfonamido)pyridine,"InChI=1S/C13H12N4O5S/c1-9(18)15-12-6-7-14-8-13(12)16-23(21,22)11-4-2-10(3-5-11)17(19)20/h2-8,16H,1H3,(H,14,15,18)",WFPVQUWLMGSJJX-UHFFFAOYSA-N,CC(=O)NC1=C(N[S](=O)(=O)C2=CC=C(C=C2)[N+]([O-])=O)C=NC=C1,-3.39,0.0,1,G1
C-1005,n-pentyl-thalidomide,"InChI=1S/C18H20N2O4/c1-2-3-6-11-19-15(21)10-9-14(18(19)24)20-16(22)12-7-4-5-8-13(12)17(20)23/h4-5,7-8,14H,2-3,6,9-11H2,1H3",ZSOMRRRVYGRIMH-UHFFFAOYSA-N,CCCCCN1C(=O)CCC(N2C(=O)C3=C(C=CC=C3)C2=O)C1=O,-4.7,0.0,1,G1
C-1006,o-isonicotinoylzidovudine,"InChI=1S/C16H16N6O5/c1-9-7-22(16(25)19-14(9)23)13-6-11(20-21-17)12(27-13)8-26-15(24)10-2-4-18-5-3-10/h2-5,7,11-13H,6,8H2,1H3,(H,19,23,25)",OYFFXILVYKNQTK-UHFFFAOYSA-N,CC1=CN(C2CC(N=[N+]=[N-])C(COC(=O)C3=CC=NC=C3)O2)C(=O)NC1=O,-2.72,0.0,1,G1
C-1007,"1,2,3,4,7-pentachlorodibenzodioxin",InChI=1S/C12H3Cl5O2/c13-4-1-2-5-6(3-4)19-12-10(17)8(15)7(14)9(16)11(12)18-5/h1-3H,WRNGAZFESPEMCN-UHFFFAOYSA-N,ClC1=CC2=C(OC3=C(O2)C(=C(Cl)C(=C3Cl)Cl)Cl)C=C1,-9.48,0.0,1,G1
C-1009,colchicine,"InChI=1S/C22H25NO6/c1-12(24)23-16-8-6-13-10-19(27-3)21(28-4)22(29-5)20(13)14-7-9-18(26-2)17(25)11-15(14)16/h7,9-11,16H,6,8H2,1-5H3,(H,23,24)",IAKHMKGGTNLKSZ-UHFFFAOYSA-N,COC1=CC=C2C(=CC1=O)C(CCC3=C2C(=C(OC)C(=C3)OC)OC)NC(C)=O,-0.94,0.0,1,G1
C-1010,fenoxaprop-ethyl,"InChI=1S/C18H16ClNO5/c1-3-22-17(21)11(2)23-13-5-7-14(8-6-13)24-18-20-15-9-4-12(19)10-16(15)25-18/h4-11H,3H2,1-2H3",PQKBPHSEKWERTG-UHFFFAOYSA-N,CCOC(=O)C(C)OC1=CC=C(OC2=NC3=C(O2)C=C(Cl)C=C3)C=C1,-5.6,0.0,1,G1
C-1012,alprazolam;  xanax,"InChI=1S/C17H13ClN4/c1-11-20-21-16-10-19-17(12-5-3-2-4-6-12)14-9-13(18)7-8-15(14)22(11)16/h2-9H,10H2,1H3",VREFGVBLTWBCJP-UHFFFAOYSA-N,CC1=NN=C2CN=C(C3=CC=CC=C3)C4=C(C=CC(=C4)Cl)[N]12,-3.6,0.0,1,G1
C-1014,benzo[e]pyrene,InChI=1S/C20H12/c1-2-8-16-15(7-1)17-9-3-5-13-11-12-14-6-4-10-18(16)20(14)19(13)17/h1-12H,TXVHTIQJNYSSKO-UHFFFAOYSA-N,C1=CC2=C3C=CC=C4C=CC5=CC=CC(=C2C=C1)C5=C34,-7.66,0.08290658732707684,3,G5
C-1016,trimazosin,"InChI=1S/C20H29N5O6/c1-20(2,27)11-31-19(26)25-8-6-24(7-9-25)18-22-14-12(17(21)23-18)10-13(28-3)15(29-4)16(14)30-5/h10,27H,6-9,11H2,1-5H3,(H2,21,22,23)",YNZXWQJZEDLQEG-UHFFFAOYSA-N,COC1=CC2=C(N)N=C(N=C2C(=C1OC)OC)N3CCN(CC3)C(=O)OCC(C)(C)O,-3.64,0.0,1,G1
C-1018,acronine;  acromycine;  acronycine,"InChI=1S/C20H19NO3/c1-20(2)10-9-13-15(24-20)11-16(23-4)17-18(13)21(3)14-8-6-5-7-12(14)19(17)22/h5-11H,1-4H3",SMPZPKRDRQOOHT-UHFFFAOYSA-N,COC1=C2C(=O)C3=C(C=CC=C3)N(C)C2=C4C=CC(C)(C)OC4=C1,-5.21,0.0,1,G1
C-1019,fentiazac,"InChI=1S/C17H12ClNO2S/c18-13-8-6-11(7-9-13)16-14(10-15(20)21)22-17(19-16)12-4-2-1-3-5-12/h1-9H,10H2,(H,20,21)",JIEKMACRVQTPRC-UHFFFAOYSA-N,OC(=O)CC1=C(N=C(S1)C2=CC=CC=C2)C3=CC=C(Cl)C=C3,-4.96,0.0,1,G1
C-1021,"2,2',3,3',4,4',5,5',6-nonachlorobiphenyl",InChI=1S/C12HCl9/c13-3-1-2(5(14)9(18)6(3)15)4-7(16)10(19)12(21)11(20)8(4)17/h1H,JFIMDKGRGPNPRQ-UHFFFAOYSA-N,ClC1=C(Cl)C(=C(Cl)C(=C1)C2=C(Cl)C(=C(Cl)C(=C2Cl)Cl)Cl)Cl,-9.62,0.3200000000000003,2,G3
C-1022,pyrazophos,"InChI=1S/C14H20N3O5PS/c1-5-19-14(18)11-9-17-12(15-10(11)4)8-13(16-17)22-23(24,20-6-2)21-7-3/h8-9H,5-7H2,1-4H3",JOOMJVFZQRQWKR-UHFFFAOYSA-N,CCOC(=O)C1=C[N]2N=C(O[P](=S)(OCC)OCC)C=C2N=C1C,-4.95,0.0,1,G1
C-1024,"2,2',3,3',4,4',5,6,6'-nonachlorobiphenyl",InChI=1S/C12HCl9/c13-2-1-3(14)6(15)7(16)4(2)5-8(17)10(19)12(21)11(20)9(5)18/h1H,YGDPIDTZOQGPAX-UHFFFAOYSA-N,ClC1=CC(=C(C(=C1Cl)Cl)C2=C(Cl)C(=C(Cl)C(=C2Cl)Cl)Cl)Cl,-10.1,0.0,1,G1
C-1026,"1,2,3,4,7,8-hexachlorodibenzodioxine",InChI=1S/C12H2Cl6O2/c13-3-1-5-6(2-4(3)14)20-12-10(18)8(16)7(15)9(17)11(12)19-5/h1-2H,WCYYQNSQJHPVMG-UHFFFAOYSA-N,ClC1=CC2=C(OC3=C(O2)C(=C(Cl)C(=C3Cl)Cl)Cl)C=C1Cl,-10.95,0.481109828071166,3,G5
C-1027,thioridazine,"InChI=1S/C21H26N2S2/c1-22-13-6-5-7-16(22)12-14-23-18-8-3-4-9-20(18)25-21-11-10-17(24-2)15-19(21)23/h3-4,8-11,15-16H,5-7,12-14H2,1-2H3",KLBQZWRITKRQQV-UHFFFAOYSA-N,CSC1=CC2=C(SC3=C(C=CC=C3)N2CCC4CCCCN4C)C=C1,-5.82,0.0,1,G1
C-1031,imibenconazole,"InChI=1S/C17H13Cl3N4S/c18-13-3-1-12(2-4-13)9-25-17(8-24-11-21-10-22-24)23-16-6-5-14(19)7-15(16)20/h1-7,10-11H,8-9H2",AGKSTYPVMZODRV-UHFFFAOYSA-N,ClC1=CC=C(CSC(C[N]2C=NC=N2)=NC3=C(Cl)C=C(Cl)C=C3)C=C1,-5.38,0.0,1,G1
C-1032,terfenadine,"InChI=1S/C32H41NO2/c1-31(2,3)26-18-16-25(17-19-26)30(34)15-10-22-33-23-20-29(21-24-33)32(35,27-11-6-4-7-12-27)28-13-8-5-9-14-28/h4-9,11-14,16-19,29-30,34-35H,10,15,20-24H2,1-3H3",GUGOEEXESWIERI-UHFFFAOYSA-N,CC(C)(C)C1=CC=C(C=C1)C(O)CCCN2CCC(CC2)C(O)(C3=CC=CC=C3)C4=CC=CC=C4,-6.69,0.0,1,G1
C-1034,"1,2,3,4,6,7,8-heptachlorodibenzofuran",InChI=1S/C12HCl7O/c13-3-1-2-4-6(15)7(16)8(17)10(19)12(4)20-11(2)9(18)5(3)14/h1H,WDMKCPIVJOGHBF-UHFFFAOYSA-N,ClC1=CC2=C(OC3=C2C(=C(Cl)C(=C3Cl)Cl)Cl)C(=C1Cl)Cl,-11.48,0.0,1,G1
C-1035,fenthiaprop-ethyl,"InChI=1S/C18H16ClNO4S/c1-3-22-17(21)11(2)23-13-5-7-14(8-6-13)24-18-20-15-9-4-12(19)10-16(15)25-18/h4-11H,3H2,1-2H3",HVCNNTAUBZIYCG-UHFFFAOYSA-N,CCOC(=O)C(C)OC1=CC=C(OC2=NC3=C(S2)C=C(Cl)C=C3)C=C1,-5.67,0.0,1,G1
C-1038,rotenone,"InChI=1S/C23H22O6/c1-11(2)16-8-14-15(28-16)6-5-12-22(24)21-13-7-18(25-3)19(26-4)9-17(13)27-10-20(21)29-23(12)14/h5-7,9,16,20-21H,1,8,10H2,2-4H3",JUVIOZPCNVVQFO-UHFFFAOYSA-N,COC1=CC2=C(C=C1OC)C3C(CO2)OC4=C(C=CC5=C4CC(O5)C(C)=C)C3=O,-4.47,0.02499999999999991,2,G3
C-1039,hydramethylnon (tautomer i),"InChI=1S/C25H24F6N4/c1-23(2)15-32-22(33-16-23)35-34-21(13-7-17-3-9-19(10-4-17)24(26,27)28)14-8-18-5-11-20(12-6-18)25(29,30)31/h3-14H,15-16H2,1-2H3,(H2,32,33,35)/b13-7+,14-8+",IQVNEKKDSLOHHK-FNCQTZNRSA-N,CC1(C)CNC(NC1)=N\N=C(/C=C/C2=CC=C(C=C2)C(F)(F)F)\C=C\C3=CC=C(C=C3)C(F)(F)F,-7.92,0.0,1,G1
C-1040,methyclothiazide,"InChI=1S/C9H11Cl2N3O4S2/c1-14-9(4-10)13-6-2-5(11)7(19(12,15)16)3-8(6)20(14,17)18/h2-3,9,13H,4H2,1H3,(H2,12,15,16)",CESYKOGBSMNBPD-UHFFFAOYSA-N,CN1C(CCl)NC2=C(C=C(C(=C2)Cl)[S](N)(=O)=O)[S]1(=O)=O,-3.78,0.0,1,G1
C-1041,quizalofop-p-tefuryl,"InChI=1S/C21H19ClN2O5/c1-13(21(25)29-20-3-2-10-26-20)27-15-5-7-16(8-6-15)28-19-12-23-18-11-14(22)4-9-17(18)24-19/h4-9,11-13,20H,2-3,10H2,1H3",JZCPOTMKOXYURK-UHFFFAOYSA-N,CC(OC1=CC=C(OC2=NC3=C(C=C(Cl)C=C3)N=C2)C=C1)C(=O)OC4CCCO4,-5.02,0.0,1,G1
C-1044,"iodamide;  3-acetamido-5-acetamidomethyl-2,4,6-triiodobenzoic  acid","InChI=1S/C12H11I3N2O4/c1-4(18)16-3-6-8(13)7(12(20)21)10(15)11(9(6)14)17-5(2)19/h3H2,1-2H3,(H,16,18)(H,17,19)(H,20,21)",VVDGWALACJEJKG-UHFFFAOYSA-N,CC(=O)NCC1=C(I)C(=C(I)C(=C1I)NC(C)=O)C(O)=O,-2.32,0.0,1,G1
C-1047,bensulfuron-methyl,"InChI=1S/C16H18N4O7S/c1-25-12-8-13(26-2)18-15(17-12)19-16(22)20-28(23,24)9-10-6-4-5-7-11(10)14(21)27-3/h4-8H,9H2,1-3H3,(H2,17,18,19,20,22)",XMQFTWRPUQYINF-UHFFFAOYSA-N,COC(=O)C1=C(C[S](=O)(=O)NC(=O)NC2=NC(=CC(=N2)OC)OC)C=CC=C1,-3.53,0.0,1,G1
C-1048,chlorimuron-ethyl,"InChI=1S/C15H15ClN4O6S/c1-3-26-13(21)9-6-4-5-7-10(9)27(23,24)20-15(22)19-14-17-11(16)8-12(18-14)25-2/h4-8H,3H2,1-2H3,(H2,17,18,19,20,22)",NSWAMPCUPHPTTC-UHFFFAOYSA-N,CCOC(=O)C1=CC=CC=C1[S](=O)(=O)NC(=O)NC2=NC(=CC(=N2)OC)Cl,-4.58,0.0,1,G1
C-1050,piroxicam,"InChI=1S/C15H13N3O4S/c1-18-13(15(20)17-12-8-4-5-9-16-12)14(19)10-6-2-3-7-11(10)23(18,21)22/h2-9,19H,1H3,(H,16,17,20)",QYSPLQLAKJAUJT-UHFFFAOYSA-N,CN1C(=C(O)C2=C(C=CC=C2)[S]1(=O)=O)C(=O)NC3=CC=CC=N3,-4.5,0.26144895401503426,3,G5
C-1051,celecoxib,"InChI=1S/C17H14F3N3O2S/c1-11-2-4-12(5-3-11)15-10-16(17(18,19)20)22-23(15)13-6-8-14(9-7-13)26(21,24)25/h2-10H,1H3,(H2,21,24,25)",RZEKVGVHFLEQIL-UHFFFAOYSA-N,CC1=CC=C(C=C1)C2=CC(=N[N]2C3=CC=C(C=C3)[S](N)(=O)=O)C(F)(F)F,-4.74,0.0,1,G1
C-1053,octachlorodibenzofuran,InChI=1S/C12Cl8O/c13-3-1-2-4(14)6(16)8(18)10(20)12(2)21-11(1)9(19)7(17)5(3)15,RHIROFAGUQOFLU-UHFFFAOYSA-N,ClC1=C(Cl)C2=C(C(=C1Cl)Cl)C3=C(O2)C(=C(Cl)C(=C3Cl)Cl)Cl,-11.58,0.0,1,G1
C-1054,dicumarol;  dicoumarol,"InChI=1S/C19H12O6/c20-16-10-5-1-3-7-14(10)24-18(22)12(16)9-13-17(21)11-6-2-4-8-15(11)25-19(13)23/h1-8,20-21H,9H2",DOBMPNYZJYQDGZ-UHFFFAOYSA-N,OC1=C(CC2=C(O)C3=CC=CC=C3OC2=O)C(=O)OC4=C1C=CC=C4,-4.27,0.0,1,G1
C-1057,propaquizafop,"InChI=1S/C22H22ClN3O5/c1-14(2)26-29-11-10-28-22(27)15(3)30-17-5-7-18(8-6-17)31-21-13-24-20-12-16(23)4-9-19(20)25-21/h4-9,12-13,15H,10-11H2,1-3H3",FROBCXTULYFHEJ-UHFFFAOYSA-N,CC(OC1=CC=C(OC2=NC3=CC=C(Cl)C=C3N=C2)C=C1)C(=O)OCCON=C(C)C,-5.85,0.0,1,G1
C-1059,benzofenap,"InChI=1S/C22H20Cl2N2O3/c1-12-5-7-15(8-6-12)18(27)11-29-22-19(14(3)25-26(22)4)21(28)16-9-10-17(23)13(2)20(16)24/h5-10H,11H2,1-4H3",JDWQITFHZOBBFE-UHFFFAOYSA-N,C[N]1N=C(C)C(=C1OCC(=O)C2=CC=C(C)C=C2)C(=O)C3=CC=C(Cl)C(=C3Cl)C,-6.52,0.0,1,G1
C-1060,meloxicam,"InChI=1S/C14H13N3O4S2/c1-8-7-15-14(22-8)16-13(19)11-12(18)9-5-3-4-6-10(9)23(20,21)17(11)2/h3-7,18H,1-2H3,(H,15,16,19)",ZRVUJXDFFKFLMG-UHFFFAOYSA-N,CN1C(=C(O)C2=CC=CC=C2[S]1(=O)=O)C(=O)NC3=NC=C(C)S3,-1.92,0.0,1,G1
C-1061,bensultap,"InChI=1S/C17H21NO4S4/c1-18(2)15(13-23-25(19,20)16-9-5-3-6-10-16)14-24-26(21,22)17-11-7-4-8-12-17/h3-12,15H,13-14H2,1-2H3",YFXPPSKYMBTNAV-UHFFFAOYSA-N,CN(C)C(CS[S](=O)(=O)C1=CC=CC=C1)CS[S](=O)(=O)C2=CC=CC=C2,-5.76,0.0,1,G1
C-1062,probucol,"InChI=1S/C31H48O2S2/c1-27(2,3)21-15-19(32)16-22(28(4,5)6)25(21)34-31(13,14)35-26-23(29(7,8)9)17-20(33)18-24(26)30(10,11)12/h15-18,32-33H,1-14H3",HMMITNDFMJJHJS-UHFFFAOYSA-N,CC(C)(C)C1=CC(=CC(=C1SC(C)(C)SC2=C(C=C(O)C=C2C(C)(C)C)C(C)(C)C)C(C)(C)C)O,-8.17,0.0,1,G1
C-1063,moricizine,"InChI=1S/C22H25N3O4S/c1-2-29-22(27)23-16-7-8-20-18(15-16)25(17-5-3-4-6-19(17)30-20)21(26)9-10-24-11-13-28-14-12-24/h3-8,15H,2,9-14H2,1H3,(H,23,27)",FUBVWMNBEHXPSU-UHFFFAOYSA-N,CCOC(=O)NC1=CC2=C(SC3=C(C=CC=C3)N2C(=O)CCN4CCOCC4)C=C1,-3.9,0.0,1,G1
C-1065,flufenoxuron;  cascade,"InChI=1S/C21H11ClF6N2O3/c22-12-8-10(21(26,27)28)4-7-17(12)33-11-5-6-16(15(25)9-11)29-20(32)30-19(31)18-13(23)2-1-3-14(18)24/h1-9H,(H2,29,30,31,32)",RYLHNOVXKPXDIP-UHFFFAOYSA-N,FC1=C(NC(=O)NC(=O)C2=C(F)C=CC=C2F)C=CC(=C1)OC3=CC=C(C=C3Cl)C(F)(F)F,-8.09,0.20865000000000045,2,G3
C-1066,flupyrsulfuron-methyl,"InChI=1S/C15H14F3N5O7S/c1-28-9-6-10(29-2)21-13(20-9)22-14(25)23-31(26,27)11-7(12(24)30-3)4-5-8(19-11)15(16,17)18/h4-6H,1-3H3,(H2,20,21,22,23,25)",DTVOKYWXACGVGO-UHFFFAOYSA-N,COC(=O)C1=CC=C(N=C1[S](=O)(=O)NC(=O)NC2=NC(=CC(=N2)OC)OC)C(F)(F)F,-3.89,0.0,1,G1
C-1067,methotrexate,"InChI=1S/C20H22N8O5/c1-28(9-11-8-23-17-15(24-11)16(21)26-20(22)27-17)12-4-2-10(3-5-12)18(31)25-13(19(32)33)6-7-14(29)30/h2-5,8,13H,6-7,9H2,1H3,(H,25,31)(H,29,30)(H,32,33)(H4,21,22,23,26,27)",FBOZXECLQNJBKD-UHFFFAOYSA-N,CN(CC1=NC2=C(N=C1)N=C(N)N=C2N)C3=CC=C(C=C3)C(=O)NC(CCC(O)=O)C(O)=O,-4.0,0.0,1,G1
C-1068,pyrazolynate,"InChI=1S/C19H16Cl2N2O4S/c1-11-4-7-14(8-5-11)28(25,26)27-19-17(12(2)22-23(19)3)18(24)15-9-6-13(20)10-16(15)21/h4-10H,1-3H3",ASRAWSBMDXVNLX-UHFFFAOYSA-N,C[N]1N=C(C)C(=C1O[S](=O)(=O)C2=CC=C(C)C=C2)C(=O)C3=C(Cl)C=C(Cl)C=C3,-6.9,0.0,1,G1
C-1069,coronene,InChI=1S/C24H12/c1-2-14-5-6-16-9-11-18-12-10-17-8-7-15-4-3-13(1)19-20(14)22(16)24(18)23(17)21(15)19/h1-12H,VPUGDVKSAQVFFS-UHFFFAOYSA-N,C1=CC2=C3C4=C1C=CC5=C4C6=C(C=C5)C=CC7=C6C3=C(C=C2)C=C7,-8.83,0.25075000000000003,2,G3
C-1070,"N-[2-[(2-Bromo-4,6-dinitrophenyl)azo]-5-[(2-cyanoethyl)-2-propenylamino]-4-methoxyphenyl]acetamide","InChI=1S/C21H20BrN7O6/c1-4-7-27(8-5-6-23)18-11-16(24-13(2)30)17(12-20(18)35-3)25-26-21-15(22)9-14(28(31)32)10-19(21)29(33)34/h4,9-12H,1,5,7-8H2,2-3H3,(H,24,30)",WUAQCCUTLFMZFP-UHFFFAOYSA-N,COC1=C(C=C(NC(C)=O)C(=C1)N=NC2=C(Br)C=C(C=C2[N+]([O-])=O)[N+]([O-])=O)N(CCC#N)CC=C,-8.9,0.0,1,G1
C-1071,etoposide,"InChI=1S/C29H32O13/c1-11-36-9-20-27(40-11)24(31)25(32)29(41-20)42-26-14-7-17-16(38-10-39-17)6-13(14)21(22-15(26)8-37-28(22)33)12-4-18(34-2)23(30)19(5-12)35-3/h4-7,11,15,20-22,24-27,29-32H,8-10H2,1-3H3",VJJPUSNTGOMMGY-UHFFFAOYSA-N,COC1=CC(=CC(=C1O)OC)C2C3C(COC3=O)C(OC4OC5COC(C)OC5C(O)C4O)C6=C2C=C7OCOC7=C6,-3.47,0.05049999999999999,2,G3
C-1072,decabromodiphenyl  ether,InChI=1S/C12Br10O/c13-1-3(15)7(19)11(8(20)4(1)16)23-12-9(21)5(17)2(14)6(18)10(12)22,WHHGLZMJPXIBIX-UHFFFAOYSA-N,BrC1=C(Br)C(=C(OC2=C(Br)C(=C(Br)C(=C2Br)Br)Br)C(=C1Br)Br)Br,-9.98,0.0,1,G1
C-1073,Cyclosporine,"InChI=1S/C62H111N11O12/c1-25-27-28-40(15)52(75)51-56(79)65-43(26-2)58(81)67(18)33-48(74)68(19)44(29-34(3)4)55(78)66-49(38(11)12)61(84)69(20)45(30-35(5)6)54(77)63-41(16)53(76)64-42(17)57(80)70(21)46(31-36(7)8)59(82)71(22)47(32-37(9)10)60(83)72(23)50(39(13)14)62(85)73(51)24/h25,27,34-47,49-52,75H,26,28-33H2,1-24H3,(H,63,77)(H,64,76)(H,65,79)(H,66,78)/b27-25+",PMATZTZNYRCHOR-IMVLJIQESA-N,CCC1NC(=O)C(C(O)C(C)C\C=C\C)N(C)C(=O)C(C(C)C)N(C)C(=O)C(CC(C)C)N(C)C(=O)C(CC(C)C)N(C)C(=O)C(C)NC(=O)C(C)NC(=O)C(CC(C)C)N(C)C(=O)C(NC(=O)C(CC(C)C)N(C)C(=O)CN(C)C1=O)C(C)C,-4.64,0.0,1,G1
C-1074,malononitrile;  dicyanomethane,InChI=1S/C3H2N2/c4-2-1-3-5/h1H2,CUONGYYJJVDODC-UHFFFAOYSA-N,N#CCC#N,0.25,0.026999999999999996,2,G3
C-1075,"n-nitroso-n,n-diisopropylamine","InChI=1S/C6H14N2O/c1-5(2)8(7-9)6(3)4/h5-6H,1-4H3",AUIKJTGFPFLMFP-UHFFFAOYSA-N,CC(C)N(N=O)C(C)C,-1.0,0.0,1,G1
C-1076,2-chloroacetamide,"InChI=1S/C2H4ClNO/c3-1-2(4)5/h1H2,(H2,4,5)",VXIVSQZSERGHQP-UHFFFAOYSA-N,NC(=O)CCl,0.03,0.025,2,G3
C-1077,trimethylacetic  acid;  pivalic acid,"InChI=1S/C5H10O2/c1-5(2,3)4(6)7/h1-3H3,(H,6,7)",IUGYQRQAERSCNH-UHFFFAOYSA-N,CC(C)(C)C(O)=O,-0.67,0.0,1,G1
C-1078,"succinonitrile;  1,2-dicyanoethane",InChI=1S/C4H4N2/c5-3-1-2-4-6/h1-2H2,IAHFWCOBPZCAEA-UHFFFAOYSA-N,N#CCCC#N,0.2,0.0,1,G1
C-1079,sarcosine;  n-methylglycine,"InChI=1S/C3H7NO2/c1-4-2-3(5)6/h4H,2H2,1H3,(H,5,6)",FSYKKLYZXJSNPZ-UHFFFAOYSA-N,CNCC(O)=O,0.53,0.0,1,G1
C-1080,"1,1,1-trichloro-2-methyl-2-propanol;  chloreton","InChI=1S/C4H7Cl3O/c1-3(2,8)4(5,6)7/h8H,1-2H3",OSASVXMJTNOKOY-UHFFFAOYSA-N,CC(C)(O)C(Cl)(Cl)Cl,-1.35,0.0,1,G1