ID,Name,InChI,InChIKey,SMILES,Solubility,SD,Occurrences,Group
C-1925,"2-benzoyloxy-n,n-(diethyl)propionamide;  2-benzoyloxy-n,n-(diethyl)propanoic acid amide","InChI=1S/C14H19NO3/c1-4-15(5-2)13(16)11(3)18-14(17)12-9-7-6-8-10-12/h6-11H,4-5H2,1-3H3",BZZFPIRKNVWTKJ-UHFFFAOYSA-N,CCN(CC)C(=O)C(C)OC(=O)C1=CC=CC=C1,-2.28,0.0,1,G1
C-1926,1-(hydroxymethyl)glutethimide,"InChI=1S/C14H17NO3/c1-2-14(11-6-4-3-5-7-11)9-8-12(17)15(10-16)13(14)18/h3-7,16H,2,8-10H2,1H3",RSSILZKLNLKCFH-UHFFFAOYSA-N,CCC1(CCC(=O)N(CO)C1=O)C2=CC=CC=C2,-1.66,0.0,1,G1
C-1927,5-nitroisophthalic acid,"InChI=1S/C8H5NO6/c10-7(11)4-1-5(8(12)13)3-6(2-4)9(14)15/h1-3H,(H,10,11)(H,12,13)",NBDAHKQJXVLAID-UHFFFAOYSA-N,OC(=O)C1=CC(=CC(=C1)[N+]([O-])=O)C(O)=O,-1.98,0.0,1,G1
C-1928,n-(2-benzoyloxyacetyl)hexamethyleneimine,"InChI=1S/C15H19NO3/c17-14(16-10-6-1-2-7-11-16)12-19-15(18)13-8-4-3-5-9-13/h3-5,8-9H,1-2,6-7,10-12H2",FZBXGZBXWFNCQY-UHFFFAOYSA-N,O=C(COC(=O)C1=CC=CC=C1)N2CCCCCC2,-2.54,0.0,1,G1
C-1929,n-isonicotinoyl-n'-decanoylhydrazine;  n-decanoyl-n'-isonicotinoylhydrazine,"InChI=1S/C16H25N3O2/c1-2-3-4-5-6-7-8-9-15(20)18-19-16(21)14-10-12-17-13-11-14/h10-13H,2-9H2,1H3,(H,18,20)(H,19,21)",MFLFKRHHEIABRC-UHFFFAOYSA-N,CCCCCCCCCC(=O)NNC(=O)C1=CC=NC=C1,-4.17,0.0,1,G1
C-1930,di(4-tolyl)  ether,"InChI=1S/C14H14O/c1-11-3-7-13(8-4-11)15-14-9-5-12(2)6-10-14/h3-10H,1-2H3",YWYHGNUFMPSTTR-UHFFFAOYSA-N,CC1=CC=C(OC2=CC=C(C)C=C2)C=C1,-4.85,0.0,1,G1
C-1931,4-[(2-methoxy)ethoxycarbonyloxy]acetanilide,"InChI=1S/C12H15NO5/c1-9(14)13-10-3-5-11(6-4-10)18-12(15)17-8-7-16-2/h3-6H,7-8H2,1-2H3,(H,13,14)",KYTDPGSAMIDEED-UHFFFAOYSA-N,COCCOC(=O)OC1=CC=C(NC(C)=O)C=C1,-1.69,0.0,1,G1
C-1933,n-hydroxymethyl-5-chlorobenzoxazol-2-one; n-(hydroxymethyl)chlorzoxazone,"InChI=1S/C8H6ClNO3/c9-5-1-2-7-6(3-5)10(4-11)8(12)13-7/h1-3,11H,4H2",FSCPTWHCVYVMGT-UHFFFAOYSA-N,OCN1C(=O)OC2=CC=C(Cl)C=C12,-2.7,0.0,1,G1
C-1934,1-acetylallopurinol,"InChI=1S/C7H6N4O2/c1-4(12)11-6-5(2-10-11)7(13)9-3-8-6/h2-3H,1H3,(H,8,9,13)",HBVOLZAKVSHTFL-UHFFFAOYSA-N,CC(=O)[N]1N=CC2=C1N=CNC2=O,-2.38,0.0,1,G1
C-1935,"tridiphane;  2-(3,5-dichlorophenyl)-2-(2,2,2-trichloroethyl)oxirane","InChI=1S/C10H7Cl5O/c11-7-1-6(2-8(12)3-7)9(5-16-9)4-10(13,14)15/h1-3H,4-5H2",IBZHOAONZVJLOB-UHFFFAOYSA-N,ClC1=CC(=CC(=C1)C2(CO2)CC(Cl)(Cl)Cl)Cl,-5.25,0.0,1,G1
C-1936,"azintamide;  2-[(6-chloro-3-pyridazinyl)thio]-n,n-diethylacetamide","InChI=1S/C10H14ClN3OS/c1-3-14(4-2)10(15)7-16-9-6-5-8(11)12-13-9/h5-6H,3-4,7H2,1-2H3",SSLKKMZJCJBOML-UHFFFAOYSA-N,CCN(CC)C(=O)CSC1=CC=C(Cl)N=N1,-1.72,0.0,1,G1
C-1937,"6,7-dimethyl-3h-pteridin-4-one;  4-hydroxy-6,7-dimethylpteridine","InChI=1S/C8H8N4O/c1-4-5(2)12-7-6(11-4)8(13)10-3-9-7/h3H,1-2H3,(H,9,10,12,13)",YZZHLQUXFAOLAA-UHFFFAOYSA-N,CC1=NC2=C(N=C1C)C(=O)NC=N2,-2.29,0.0,1,G1
C-1938,canrenoic  acid,"InChI=1S/C22H30O4/c1-20-9-5-15(23)13-14(20)3-4-16-17(20)6-10-21(2)18(16)7-11-22(21,26)12-8-19(24)25/h3-4,13,16-18,26H,5-12H2,1-2H3,(H,24,25)",PBKZPPIHUVSDNM-UHFFFAOYSA-N,CC12CCC(=O)C=C1C=CC3C2CCC4(C)C3CCC4(O)CCC(O)=O,-5.17,0.0,1,G1
C-1939,"2-oxo-5-indolinyl acetate;  acetic acid 2-oxo-2,3-dihydro-1h-indol-5-yl ester;  5-acetoxy-2-oxo-2,3-dihydroindole","InChI=1S/C10H9NO3/c1-6(12)14-8-2-3-9-7(4-8)5-10(13)11-9/h2-4H,5H2,1H3,(H,11,13)",HFLJOXHDBCRLQR-UHFFFAOYSA-N,CC(=O)OC1=CC2=C(NC(=O)C2)C=C1,-1.54,0.0,1,G1
C-1940,"2,4-dinitrobenzoic acid","InChI=1S/C7H4N2O6/c10-7(11)5-2-1-4(8(12)13)3-6(5)9(14)15/h1-3H,(H,10,11)",ZIIGSRYPZWDGBT-UHFFFAOYSA-N,OC(=O)C1=C(C=C(C=C1)[N+]([O-])=O)[N+]([O-])=O,-1.06,0.0,1,G1
C-1941,"3,4-dinitrobenzoic acid","InChI=1S/C7H4N2O6/c10-7(11)4-1-2-5(8(12)13)6(3-4)9(14)15/h1-3H,(H,10,11)",OMVRRHJJQILIJX-UHFFFAOYSA-N,OC(=O)C1=CC(=C(C=C1)[N+]([O-])=O)[N+]([O-])=O,-1.5,0.0,1,G1
C-1942,"6,7-diethylpteridine","InChI=1S/C10H12N4/c1-3-7-8(4-2)14-10-9(13-7)5-11-6-12-10/h5-6H,3-4H2,1-2H3",ULZKCUXGSDTDQB-UHFFFAOYSA-N,CCC1=NC2=C(N=CN=C2)N=C1CC,-0.18,0.0,1,G1
C-1943,4-phenylazophenol;  4-hydroxyazobenzene,"InChI=1S/C12H10N2O/c15-12-8-6-11(7-9-12)14-13-10-4-2-1-3-5-10/h1-9,15H",BEYOBVMPDRKTNR-UHFFFAOYSA-N,OC1=CC=C(C=C1)N=NC2=CC=CC=C2,-3.34,0.0,1,G1
C-1944,amiloride,"InChI=1S/C6H8ClN7O/c7-2-4(9)13-3(8)1(12-2)5(15)14-6(10)11/h(H4,8,9,13)(H4,10,11,14,15)",XSDQTOBWRPYKKA-UHFFFAOYSA-N,NC(=N)NC(=O)C1=NC(=C(N)N=C1N)Cl,-2.87,0.0,1,G1
C-1945,"tetrachloroveratrole;  1,2,3,4-tetrachloro-5,6-dimethoxybenzene",InChI=1S/C8H6Cl4O2/c1-13-7-5(11)3(9)4(10)6(12)8(7)14-2/h1-2H3,NCYHCGGUQGDEQW-UHFFFAOYSA-N,COC1=C(OC)C(=C(Cl)C(=C1Cl)Cl)Cl,-5.24,0.0,1,G1
C-1946,"6-methyl-3h,8h-pteridin-4,7-dione","InChI=1S/C7H6N4O2/c1-3-6(12)11-5-4(10-3)7(13)9-2-8-5/h2H,1H3,(H2,8,9,11,12,13)",QAMLXSWNZSGVKP-UHFFFAOYSA-N,CC1=NC2=C(NC1=O)N=CNC2=O,-2.2,0.0,1,G1
C-1947,eglinazine-ethyl,"InChI=1S/C9H14ClN5O2/c1-3-11-8-13-7(10)14-9(15-8)12-5-6(16)17-4-2/h3-5H2,1-2H3,(H2,11,12,13,14,15)",YESXTECNXIKUMM-UHFFFAOYSA-N,CCNC1=NC(=NC(=N1)NCC(=O)OCC)Cl,-2.94,0.0,1,G1
C-1948,2'-diethylaminoethyl  4-acetamidobenzoate,"InChI=1S/C15H22N2O3/c1-4-17(5-2)10-11-20-15(19)13-6-8-14(9-7-13)16-12(3)18/h6-9H,4-5,10-11H2,1-3H3,(H,16,18)",YMABTXMPJQRLCQ-UHFFFAOYSA-N,CCN(CC)CCOC(=O)C1=CC=C(NC(C)=O)C=C1,-1.65,0.0,1,G1
C-1949,2-{[4-(2-chloroacetyl)phenyl]hydrazono}malononitrile,"InChI=1S/C11H7ClN4O/c12-5-11(17)8-1-3-9(4-2-8)15-16-10(6-13)7-14/h1-4,15H,5H2",ARUUDRZOVHJRDG-UHFFFAOYSA-N,ClCC(=O)C1=CC=C(NN=C(C#N)C#N)C=C1,-3.19,0.0,1,G1
C-1950,l-dopa pentyl ester,"InChI=1S/C14H21NO4/c1-2-3-4-7-19-14(18)11(15)8-10-5-6-12(16)13(17)9-10/h5-6,9,11,16-17H,2-4,7-8,15H2,1H3",WGYXRPGKLMQCLW-UHFFFAOYSA-N,CCCCCOC(=O)C(N)CC1=CC(=C(O)C=C1)O,-0.99,0.0,1,G1
C-1951,"benzyl  2,2-diethylmalonurate","InChI=1S/C15H20N2O4/c1-3-15(4-2,12(18)17-14(16)20)13(19)21-10-11-8-6-5-7-9-11/h5-9H,3-4,10H2,1-2H3,(H3,16,17,18,20)",WVPRQIREPMNEIX-UHFFFAOYSA-N,CCC(CC)(C(=O)NC(N)=O)C(=O)OCC1=CC=CC=C1,-3.66,0.0,1,G1
C-1952,acetaminophen  octanoate;  4-(octanoyloxy)acetanilide,"InChI=1S/C16H23NO3/c1-3-4-5-6-7-8-16(19)20-15-11-9-14(10-12-15)17-13(2)18/h9-12H,3-8H2,1-2H3,(H,17,18)",FMSIHPQFJSZQTA-UHFFFAOYSA-N,CCCCCCCC(=O)OC1=CC=C(NC(C)=O)C=C1,-4.44,0.0,1,G1
C-1953,n-cyclohexyl-n-methyl-2-(benzoyloxy)acetamide,"InChI=1S/C16H21NO3/c1-17(14-10-6-3-7-11-14)15(18)12-20-16(19)13-8-4-2-5-9-13/h2,4-5,8-9,14H,3,6-7,10-12H2,1H3",PDIJPBODFJXKMS-UHFFFAOYSA-N,CN(C1CCCCC1)C(=O)COC(=O)C2=CC=CC=C2,-3.29,0.0,1,G1
C-1954,"2-amino-4,6(1h,5h)-pteridinedione;  2-amino-4,6-pteridinediole;  xanthopterine","InChI=1S/C6H5N5O2/c7-6-10-4-3(5(13)11-6)9-2(12)1-8-4/h1H,(H,9,12)(H3,7,8,10,11,13)",VURKRJGMSKJIQX-UHFFFAOYSA-N,NC1=NC(=O)C2=C(N1)N=CC(=O)N2,-3.86,0.0,1,G1
C-1955,"2,4,7(1h,3h,8h)-pteridinetrione;  2,4,7-pteridinetrione","InChI=1S/C6H4N4O3/c11-2-1-7-3-4(8-2)9-6(13)10-5(3)12/h1H,(H3,8,9,10,11,12,13)",BCVUYVOMXUKYFC-UHFFFAOYSA-N,O=C1NC(=O)C2=C(N1)NC(=O)C=N2,-3.34,0.0,1,G1
C-1956,n-[2-(benzoyloxy)acetyl]-2-ethylpiperidine,"InChI=1S/C16H21NO3/c1-2-14-10-6-7-11-17(14)15(18)12-20-16(19)13-8-4-3-5-9-13/h3-5,8-9,14H,2,6-7,10-12H2,1H3",WXHDYGRKHGIEOF-UHFFFAOYSA-N,CCC1CCCCN1C(=O)COC(=O)C2=CC=CC=C2,-2.72,0.0,1,G1
C-1957,3-octanoyloxymethyl-5-fluorouracil,"InChI=1S/C13H19FN2O4/c1-2-3-4-5-6-7-11(17)20-9-16-12(18)10(14)8-15-13(16)19/h8H,2-7,9H2,1H3,(H,15,19)",PEGCWSPKBALNEQ-UHFFFAOYSA-N,CCCCCCCC(=O)OCN1C(=O)NC=C(F)C1=O,-3.29,0.0,1,G1
C-1958,"4,6,7-pteridinetrione;  4,6,7(3h,5h,8h)-pteridinetrione","InChI=1S/C6H4N4O3/c11-4-2-3(7-1-8-4)10-6(13)5(12)9-2/h1H,(H,9,12)(H2,7,8,10,11,13)",HMMIQMIGJAIOAZ-UHFFFAOYSA-N,O=C1NC=NC2=C1NC(=O)C(=O)N2,-3.69,0.0,1,G1
C-1959,equilin,"InChI=1S/C18H20O2/c1-18-9-8-14-13-5-3-12(19)10-11(13)2-4-15(14)16(18)6-7-17(18)20/h3-5,10,14,16,19H,2,6-9H2,1H3",WKRLQDKEXYKHJB-UHFFFAOYSA-N,CC12CCC3C(=CCC4=C3C=CC(=C4)O)C1CCC2=O,-4.99,0.14500000000000002,2,G3
C-1960,methyl  2-ethyl-2-phenylmalonurate,"InChI=1S/C13H16N2O4/c1-3-13(11(17)19-2,10(16)15-12(14)18)9-7-5-4-6-8-9/h4-8H,3H2,1-2H3,(H3,14,15,16,18)",MYLAIRXFVDTCCC-UHFFFAOYSA-N,CCC(C(=O)NC(N)=O)(C(=O)OC)C1=CC=CC=C1,-2.75,0.0,1,G1
C-1961,"prothoate;  o,o-diethyl-s-[(n-isopropyl)carbamoylmethyl)  dithiophosphate","InChI=1S/C9H20NO3PS2/c1-5-12-14(15,13-6-2)16-7-9(11)10-8(3)4/h8H,5-7H2,1-4H3,(H,10,11)",QTXHFDHVLBDJIO-UHFFFAOYSA-N,CCO[P](=S)(OCC)SCC(=O)NC(C)C,-2.06,0.0,1,G1
C-1962,4-[(1-methyl-2-methoxy)ethoxy]carboxyacetanilide; 4-[(2-methoxy-1-methylethyloxy)carbonyloxy]acetanilide,"InChI=1S/C13H17NO5/c1-9(8-17-3)18-13(16)19-12-6-4-11(5-7-12)14-10(2)15/h4-7,9H,8H2,1-3H3,(H,14,15)",DRVLSPUGFXRFLW-UHFFFAOYSA-N,COCC(C)OC(=O)OC1=CC=C(NC(C)=O)C=C1,-2.48,0.0,1,G1
C-1963,4-hexyloxycarbonyloxyacetanilide,"InChI=1S/C15H21NO4/c1-3-4-5-6-11-19-15(18)20-14-9-7-13(8-10-14)16-12(2)17/h7-10H,3-6,11H2,1-2H3,(H,16,17)",QWBBNHZKIXNKGJ-UHFFFAOYSA-N,CCCCCCOC(=O)OC1=CC=C(NC(C)=O)C=C1,-4.32,0.0,1,G1
C-1965,"1,5-bis(hydroxymethyl)allopurinol","InChI=1S/C7H8N4O3/c12-3-10-2-8-6-5(7(10)14)1-9-11(6)4-13/h1-2,12-13H,3-4H2",XLLZCADRJDALIP-UHFFFAOYSA-N,OCN1C=NC2=C(C=N[N]2CO)C1=O,-1.72,0.0,1,G1
C-1966,1-propanoylallopurinol,"InChI=1S/C8H8N4O2/c1-2-6(13)12-7-5(3-11-12)8(14)10-4-9-7/h3-4H,2H2,1H3,(H,9,10,14)",ZUXVZGNVGRXENQ-UHFFFAOYSA-N,CCC(=O)[N]1N=CC2=C1N=CNC2=O,-2.81,0.0,1,G1
C-1967,"n,n-diisobutyl-2-benzoyloxyacetamide","InChI=1S/C17H25NO3/c1-13(2)10-18(11-14(3)4)16(19)12-21-17(20)15-8-6-5-7-9-15/h5-9,13-14H,10-12H2,1-4H3",KXYFWLVSYHRZJL-UHFFFAOYSA-N,CC(C)CN(CC(C)C)C(=O)COC(=O)C1=CC=CC=C1,-3.56,0.0,1,G1
C-1969,"norethindrone  enanthate, norethindrone heptanoate; norethisterone enanthate","InChI=1S/C27H38O3/c1-4-6-7-8-9-25(29)30-27(5-2)17-15-24-23-12-10-19-18-20(28)11-13-21(19)22(23)14-16-26(24,27)3/h2,18,21-24H,4,6-17H2,1,3H3",APTGJECXMIKIET-UHFFFAOYSA-N,CCCCCCC(=O)OC1(CCC2C3CCC4=CC(=O)CCC4C3CCC12C)C#C,-6.89,0.0,1,G1
C-1970,1-nitro-2-naphthol;  2-hydroxy-1-nitronaphthalene,"InChI=1S/C10H7NO3/c12-9-6-5-7-3-1-2-4-8(7)10(9)11(13)14/h1-6,12H",SSHIVHKMGVBXTJ-UHFFFAOYSA-N,OC1=C(C2=C(C=CC=C2)C=C1)[N+]([O-])=O,-2.98,0.0,1,G1
C-1971,picein,"InChI=1S/C14H18O7/c1-7(16)8-2-4-9(5-3-8)20-14-13(19)12(18)11(17)10(6-15)21-14/h2-5,10-15,17-19H,6H2,1H3",GOZCEKPKECLKNO-UHFFFAOYSA-N,CC(=O)C1=CC=C(OC2OC(CO)C(O)C(O)C2O)C=C1,-1.17,0.0,1,G1
C-1972,"6-(2-hydroxyethyl)amino-7-methyl-3,7-dihydro-2h-purin-2-one","InChI=1S/C8H11N5O2/c1-13-4-10-7-5(13)6(9-2-3-14)11-8(15)12-7/h4,14H,2-3H2,1H3,(H2,9,11,12,15)",NRFNHVNHUCNPFW-UHFFFAOYSA-N,C[N]1C=NC2=C1C(=NC(=O)N2)NCCO,0.08,0.0,1,G1
C-1973,"1-[5-(2-chloro-1,1-dimethylethyl)-[1,3,4]thiadiazol-2-yl]-1,3-dimethylurea","InChI=1S/C9H15ClN4OS/c1-9(2,5-10)6-12-13-8(16-6)14(4)7(15)11-3/h5H2,1-4H3,(H,11,15)",IYKPHPWPBFMVHA-UHFFFAOYSA-N,CNC(=O)N(C)C1=NN=C(S1)C(C)(C)CCl,-2.47,0.0,1,G1
C-1974,"proglinazine-ethyl; n-(4-chloro-6-isopropylamino-1,3,5-triazin-2-yl)glycine ethyl ester","InChI=1S/C10H16ClN5O2/c1-4-18-7(17)5-12-9-14-8(11)15-10(16-9)13-6(2)3/h6H,4-5H2,1-3H3,(H2,12,13,14,15,16)",QQADVTSTCZBBOE-UHFFFAOYSA-N,CCOC(=O)CNC1=NC(=NC(=N1)NC(C)C)Cl,-2.56,0.0,1,G1
C-1975,"2,3,6-trichloronaphthalene",InChI=1S/C10H5Cl3/c11-8-2-1-6-4-9(12)10(13)5-7(6)3-8/h1-5H,ZYTLBFKRYKUCMJ-UHFFFAOYSA-N,ClC1=CC2=C(C=C1)C=C(Cl)C(=C2)Cl,-7.14,0.0,1,G1
C-1976,"2-benzoyloxy-n,n-bis(2-hydroxypropyl)acetamide; n,n-bis(2-hydroxypropyl)-2-benzoyloxyacetamide","InChI=1S/C15H21NO5/c1-11(17)8-16(9-12(2)18)14(19)10-21-15(20)13-6-4-3-5-7-13/h3-7,11-12,17-18H,8-10H2,1-2H3",LDCFNNYCIXKMNJ-UHFFFAOYSA-N,CC(O)CN(CC(C)O)C(=O)COC(=O)C1=CC=CC=C1,-1.18,0.0,1,G1
C-1977,"dinoterb;  2-tert-butyl-4,6-dinitrophenol","InChI=1S/C10H12N2O5/c1-10(2,3)7-4-6(11(14)15)5-8(9(7)13)12(16)17/h4-5,13H,1-3H3",IIPZYDQGBIWLBU-UHFFFAOYSA-N,CC(C)(C)C1=C(O)C(=CC(=C1)[N+]([O-])=O)[N+]([O-])=O,-4.73,0.0,1,G1
C-1978,acetaminophen  decanoate,"InChI=1S/C18H27NO3/c1-3-4-5-6-7-8-9-10-18(21)22-17-13-11-16(12-14-17)19-15(2)20/h11-14H,3-10H2,1-2H3,(H,19,20)",MKSNUUCDBOSWNQ-UHFFFAOYSA-N,CCCCCCCCCC(=O)OC1=CC=C(NC(C)=O)C=C1,-4.53,0.0,1,G1
C-1979,thiophenobarbital;  5-ethyl-5-phenyl-2-thiobarbituric  acid,"InChI=1S/C12H12N2O2S/c1-2-12(8-6-4-3-5-7-8)9(15)13-11(17)14-10(12)16/h3-7H,2H2,1H3,(H2,13,14,15,16,17)",GHHFRPRCYQNNDL-UHFFFAOYSA-N,CCC1(C(=O)NC(=S)NC1=O)C2=CC=CC=C2,-3.58,0.0,1,G1
C-1980,"terbucarb;  2,6-di-(tert-butyl)-4-tolyl methylcarbamate","InChI=1S/C17H27NO2/c1-11-9-12(16(2,3)4)14(20-15(19)18-8)13(10-11)17(5,6)7/h9-10H,1-8H3,(H,18,19)",PNRAZZZISDRWMV-UHFFFAOYSA-N,CNC(=O)OC1=C(C=C(C)C=C1C(C)(C)C)C(C)(C)C,-4.6,0.0,1,G1
C-1981,alloxantin;  uroxin,"InChI=1S/C8H6N4O8/c13-1-7(19,2(14)10-5(17)9-1)8(20)3(15)11-6(18)12-4(8)16/h19-20H,(H2,9,10,13,14,17)(H2,11,12,15,16,18)",IWDDXZKCDHOOSF-UHFFFAOYSA-N,OC1(C(=O)NC(=O)NC1=O)C2(O)C(=O)NC(=O)NC2=O,-1.99,0.12,2,G3
C-1982,4-biphenyl  isothiocyanate;  4-isothiocyanatobiphenyl,InChI=1S/C13H9NS/c15-10-14-13-8-6-12(7-9-13)11-4-2-1-3-5-11/h1-9H,WPYSJFXXQNITBC-UHFFFAOYSA-N,S=C=NC1=CC=C(C=C1)C2=CC=CC=C2,-4.85,0.0,1,G1
C-1983,4-amino-2-sulfobenzoic acid,"InChI=1S/C7H7NO5S/c8-4-1-2-5(7(9)10)6(3-4)14(11,12)13/h1-3H,8H2,(H,9,10)(H,11,12,13)",YPNUYFJLBFZDTE-UHFFFAOYSA-N,NC1=CC(=C(C=C1)C(O)=O)[S](O)(=O)=O,-1.86,0.0,1,G1
C-1984,l-dopa cyclohexyl ester,"InChI=1S/C15H21NO4/c16-12(8-10-6-7-13(17)14(18)9-10)15(19)20-11-4-2-1-3-5-11/h6-7,9,11-12,17-18H,1-5,8,16H2",YBJCMVKVPJXBGR-UHFFFAOYSA-N,NC(CC1=CC(=C(O)C=C1)O)C(=O)OC2CCCCC2,-1.27,0.0,1,G1
C-1986,"2,3,4,6-tetrachlorophenoxyacetic  acid","InChI=1S/C8H4Cl4O3/c9-3-1-4(10)8(7(12)6(3)11)15-2-5(13)14/h1H,2H2,(H,13,14)",FCZCIRUCCZUXMC-UHFFFAOYSA-N,OC(=O)COC1=C(Cl)C(=C(Cl)C=C1Cl)Cl,-3.41,0.0,1,G1
C-1987,1-butanoylallopurinol,"InChI=1S/C9H10N4O2/c1-2-3-7(14)13-8-6(4-12-13)9(15)11-5-10-8/h4-5H,2-3H2,1H3,(H,10,11,15)",ABLLZVRKYUXMHV-UHFFFAOYSA-N,CCCC(=O)[N]1N=CC2=C1N=CNC2=O,-3.27,0.0,1,G1
C-1988,"2-amino-6,7-diethylpteridine","InChI=1S/C10H13N5/c1-3-6-7(4-2)14-9-8(13-6)5-12-10(11)15-9/h5H,3-4H2,1-2H3,(H2,11,12,14,15)",BTBIATCZGBXLGC-UHFFFAOYSA-N,CCC1=NC2=C(N=C(N)N=C2)N=C1CC,-3.04,0.0,1,G1
C-1990,biphenyl-4-ylacetic acid;  4-biphenylacetic  acid,"InChI=1S/C14H12O2/c15-14(16)10-11-6-8-13(9-7-11)12-4-2-1-3-5-12/h1-9H,10H2,(H,15,16)",QRZAKQDHEVVFRX-UHFFFAOYSA-N,OC(=O)CC1=CC=C(C=C1)C2=CC=CC=C2,-3.73,0.0,1,G1
C-1992,"4-amino-6,7-diethylpteridine","InChI=1S/C10H13N5/c1-3-6-7(4-2)15-10-8(14-6)9(11)12-5-13-10/h5H,3-4H2,1-2H3,(H2,11,12,13,15)",HHDDWTCUQVPOBP-UHFFFAOYSA-N,CCC1=NC2=C(N=C1CC)C(=NC=N2)N,-2.93,0.0,1,G1
C-1993,"n1,n1-diethylsulfanilamide","InChI=1S/C10H16N2O2S/c1-3-12(4-2)15(13,14)10-7-5-9(11)6-8-10/h5-8H,3-4,11H2,1-2H3",LTFVELCIFWEGGA-UHFFFAOYSA-N,CCN(CC)[S](=O)(=O)C1=CC=C(N)C=C1,-2.63,0.0,1,G1
C-1994,7-ethyltheophylline,"InChI=1S/C9H12N4O2/c1-4-13-5-10-7-6(13)8(14)12(3)9(15)11(7)2/h5H,4H2,1-3H3",RPOQNHMXOPWCEK-UHFFFAOYSA-N,CC[N]1C=NC2=C1C(=O)N(C)C(=O)N2C,-0.76,0.0,1,G1
C-1995,1-ethyltheobromine,"InChI=1S/C9H12N4O2/c1-4-13-8(14)6-7(10-5-11(6)2)12(3)9(13)15/h5H,4H2,1-3H3",KRVVZPXPQUPXJE-UHFFFAOYSA-N,CCN1C(=O)N(C)C2=C([N](C)C=N2)C1=O,-0.72,0.0,1,G1
C-1996,4-acetoxybiphenyl;  4-biphenylyl  acetate,"InChI=1S/C14H12O2/c1-11(15)16-14-9-7-13(8-10-14)12-5-3-2-4-6-12/h2-10H,1H3",MISFQCBPASYYGV-UHFFFAOYSA-N,CC(=O)OC1=CC=C(C=C1)C2=CC=CC=C2,-4.4,0.0,1,G1
C-1997,"2,4-dihydroxyazobenzene","InChI=1S/C12H10N2O2/c15-10-6-7-11(12(16)8-10)14-13-9-4-2-1-3-5-9/h1-8,15-16H",BPTKLSBRRJFNHJ-UHFFFAOYSA-N,OC1=CC(=C(C=C1)N=NC2=CC=CC=C2)O,-3.03,0.0,1,G1
C-1998,epristeride; skf-105657,"InChI=1S/C25H37NO3/c1-23(2,3)26-21(27)20-9-8-18-17-7-6-16-14-15(22(28)29)10-12-24(16,4)19(17)11-13-25(18,20)5/h6,14,17-20H,7-13H2,1-5H3,(H,26,27)(H,28,29)",VAPSMQAHNAZRKC-UHFFFAOYSA-N,CC(C)(C)NC(=O)C1CCC2C3CC=C4C=C(CCC4(C)C3CCC12C)C(O)=O,-8.76,0.0,1,G1
C-1999,amdinocillin; mecillinam,"InChI=1S/C15H23N3O3S/c1-15(2)11(14(20)21)18-12(19)10(13(18)22-15)16-9-17-7-5-3-4-6-8-17/h9-11,13H,3-8H2,1-2H3,(H,20,21)",BWWVAEOLVKTZFQ-UHFFFAOYSA-N,CC1(C)SC2C(N=CN3CCCCCC3)C(=O)N2C1C(O)=O,-4.5,0.0,1,G1
C-2000,"6,7-diethyl-3h-pteridin-4-one;  ""4-hydroxy-6,7-diethylpteridine""","InChI=1S/C10H12N4O/c1-3-6-7(4-2)14-9-8(13-6)10(15)12-5-11-9/h5H,3-4H2,1-2H3,(H,11,12,14,15)",WIUUIGUJULBTKD-UHFFFAOYSA-N,CCC1=NC2=C(N=C1CC)C(=O)NC=N2,-1.91,0.0,1,G1
C-2001,"trifluridine;  alpha,alpha,alpha-trifluorothymidine;  2'-deoxy-5-(trifluoromethyl)uridine","InChI=1S/C10H11F3N2O5/c11-10(12,13)4-2-15(9(19)14-8(4)18)7-1-5(17)6(3-16)20-7/h2,5-7,16-17H,1,3H2,(H,14,18,19)",VSQQQLOSPVPRAZ-UHFFFAOYSA-N,OCC1OC(CC1O)N2C=C(C(=O)NC2=O)C(F)(F)F,-0.71,0.0,1,G1
C-2002,7-hydroxymethyltheophylline,"InChI=1S/C8H10N4O3/c1-10-6-5(12(4-13)3-9-6)7(14)11(2)8(10)15/h3,13H,4H2,1-2H3",QAPJAMJGLYYNHX-UHFFFAOYSA-N,CN1C(=O)N(C)C2=C([N](CO)C=N2)C1=O,-0.41,0.0,1,G1
C-2003,"o-aminoazotoluene;  4-amino-2',3-dimethylazobenzene","InChI=1S/C14H15N3/c1-10-5-3-4-6-14(10)17-16-12-7-8-13(15)11(2)9-12/h3-9H,15H2,1-2H3",PFRYFZZSECNQOL-UHFFFAOYSA-N,CC1=CC=CC=C1N=NC2=CC=C(N)C(=C2)C,-4.51,0.0,1,G1
C-2004,"2-amino-4,6,7(1h,5h,8h)-pteridinetrione;  2-amino-4,6,7-pteridinetriole;  leucopterine","InChI=1S/C6H5N5O3/c7-6-10-2-1(3(12)11-6)8-4(13)5(14)9-2/h(H,8,13)(H4,7,9,10,11,12,14)",SFLOGVVDXPCWGR-UHFFFAOYSA-N,NC1=NC(=O)C2=C(N1)NC(=O)C(=O)N2,-5.17,0.0,1,G1
C-2005,1-(hydroxymethyl)phenobarbital,"InChI=1S/C13H14N2O4/c1-2-13(9-6-4-3-5-7-9)10(17)14-12(19)15(8-16)11(13)18/h3-7,16H,2,8H2,1H3,(H,14,17,19)",ZHCBZZQETYNMFV-UHFFFAOYSA-N,CCC1(C(=O)NC(=O)N(CO)C1=O)C2=CC=CC=C2,-1.6,0.0,1,G1
C-2007,6-mercapto-(s-acetoxymethyl)purine,"InChI=1S/C8H8N4O2S/c1-5(13)14-4-15-8-6-7(10-2-9-6)11-3-12-8/h2-3H,4H2,1H3,(H,9,10,11,12)",WOHYIPNWSCCKOE-UHFFFAOYSA-N,CC(=O)OCSC1=NC=NC2=C1N=C[NH]2,-2.15,0.0,1,G1
C-2008,"2,4,6,7-pteridinetetraone","InChI=1S/C6H4N4O4/c11-3-1-2(9-6(14)10-3)8-5(13)4(12)7-1/h(H,7,12)(H3,8,9,10,11,13,14)",MVKRISPIRVEPFM-UHFFFAOYSA-N,O=C1NC(=O)C2=C(N1)NC(=O)C(=O)N2,-4.06,0.0,1,G1
C-2009,"1-(3,4-dichlorophenyl)-2,2,2-trichloroethyl  acetate","InChI=1S/C10H7Cl5O2/c1-5(16)17-9(10(13,14)15)6-2-3-7(11)8(12)4-6/h2-4,9H,1H3",FSGNOVKGEXRRHD-UHFFFAOYSA-N,CC(=O)OC(C1=CC=C(Cl)C(=C1)Cl)C(Cl)(Cl)Cl,-3.83,0.0,1,G1
C-2010,imazapyr,"InChI=1S/C13H15N3O3/c1-7(2)13(3)12(19)15-10(16-13)9-8(11(17)18)5-4-6-14-9/h4-7H,1-3H3,(H,17,18)(H,15,16,19)",CLQMBPJKHLGMQK-UHFFFAOYSA-N,CC(C)C1(C)N=C(NC1=O)C2=NC=CC=C2C(O)=O,-1.36,0.0,1,G1
C-2011,ranitidine,"InChI=1S/C13H22N4O3S/c1-14-13(9-17(18)19)15-6-7-21-10-12-5-4-11(20-12)8-16(2)3/h4-5,9,14-15H,6-8,10H2,1-3H3/b13-9-",VMXUWOKSQNHOCA-LCYFTJDESA-N,CNC(/NCCSCC1=CC=C(CN(C)C)O1)=C/[N+]([O-])=O,-2.5,0.0,1,G1
C-2012,prednisone,"InChI=1S/C21H26O5/c1-19-7-5-13(23)9-12(19)3-4-14-15-6-8-21(26,17(25)11-22)20(15,2)10-16(24)18(14)19/h5,7,9,14-15,18,22,26H,3-4,6,8,10-11H2,1-2H3",XOFYZVNMUHMLCC-UHFFFAOYSA-N,CC12CC(=O)C3C(CCC4=CC(=O)C=CC34C)C1CCC2(O)C(=O)CO,-3.48,0.0,1,G1
C-2013,vasicinone,"InChI=1S/C11H10N2O2/c14-9-5-6-13-10(9)12-8-4-2-1-3-7(8)11(13)15/h1-4,9,14H,5-6H2",SDIVYZXRQHWCKF-UHFFFAOYSA-N,OC1CCN2C(=O)C3=C(C=CC=C3)N=C12,-2.1,0.0,1,G1
C-2015,7-propyltheophylline,"InChI=1S/C10H14N4O2/c1-4-5-14-6-11-8-7(14)9(15)13(3)10(16)12(8)2/h6H,4-5H2,1-3H3",HGFWMGARSDHJFP-UHFFFAOYSA-N,CCC[N]1C=NC2=C1C(=O)N(C)C(=O)N2C,0.02,0.0,1,G1
C-2016,1-propyltheobromine,"InChI=1S/C10H14N4O2/c1-4-5-14-9(15)7-8(11-6-12(7)2)13(3)10(14)16/h6H,4-5H2,1-3H3",XJKSERUTELYNMR-UHFFFAOYSA-N,CCCN1C(=O)N(C)C2=C([N](C)C=N2)C1=O,-1.21,0.0,1,G1
C-2017,"1,3-dihydro-4-ethyl-5-[(pyridin-4-yl)carbonyl]imidazol-2-one","InChI=1S/C11H11N3O2/c1-2-8-9(14-11(16)13-8)10(15)7-3-5-12-6-4-7/h3-6H,2H2,1H3,(H2,13,14,16)",OQGWJZOWLHWFME-UHFFFAOYSA-N,CCC1=C(NC(=O)N1)C(=O)C2=CC=NC=C2,-1.99,0.0,1,G1
C-2018,"n,o-diacetyl-l-tyrosinamide","InChI=1S/C13H16N2O4/c1-8(16)15-12(13(14)18)7-10-3-5-11(6-4-10)19-9(2)17/h3-6,12H,7H2,1-2H3,(H2,14,18)(H,15,16)",QETYUVKBQJLLLM-UHFFFAOYSA-N,CC(=O)NC(CC1=CC=C(OC(C)=O)C=C1)C(N)=O,-1.9,0.0,1,G1
C-2019,"chlorfluazole;  4,5-dichloro-2-trifluoromethylbenzimidazole","InChI=1S/C8H3Cl2F3N2/c9-3-1-2-4-6(5(3)10)15-7(14-4)8(11,12)13/h1-2H,(H,14,15)",KSROTSBULDYPKA-UHFFFAOYSA-N,FC(F)(F)C1=NC2=C([NH]1)C=CC(=C2Cl)Cl,-3.57,0.0,1,G1
C-2020,metronidazole  phosphate,"InChI=1S/C6H10N3O6P/c1-5-7-4-6(9(10)11)8(5)2-3-15-16(12,13)14/h4H,2-3H2,1H3,(H2,12,13,14)",GFFOAZOYBIIJHI-UHFFFAOYSA-N,CC1=NC=C([N]1CCO[P](O)(O)=O)[N+]([O-])=O,-1.38,0.0,1,G1
C-2023,mepanipyrim;  2-anilino-4-methyl-6-(1-propynyl)pyrimidine,"InChI=1S/C14H13N3/c1-3-7-13-10-11(2)15-14(17-13)16-12-8-5-4-6-9-12/h4-6,8-10H,1-2H3,(H,15,16,17)",CIFWZNRJIBNXRE-UHFFFAOYSA-N,CC#CC1=NC(=NC(=C1)C)NC2=CC=CC=C2,-4.6,0.12875000000000014,2,G3