ID,Name,InChI,InChIKey,SMILES,Solubility,SD,Occurrences,Group
C-2221,"2,3',4,5',6-pentachlorobiphenyl",InChI=1S/C12H5Cl5/c13-7-1-6(2-8(14)3-7)12-10(16)4-9(15)5-11(12)17/h1-5H,XBVSGJGMWSKAKL-UHFFFAOYSA-N,ClC1=CC(=C(C(=C1)Cl)C2=CC(=CC(=C2)Cl)Cl)Cl,-7.92,0.0,1,G1
C-2222,"2,3,4,4',6-pentachlorobiphenyl",InChI=1S/C12H5Cl5/c13-7-3-1-6(2-4-7)10-8(14)5-9(15)11(16)12(10)17/h1-5H,IOVARPVVZDOPGQ-UHFFFAOYSA-N,ClC1=CC=C(C=C1)C2=C(Cl)C(=C(Cl)C=C2Cl)Cl,-7.95,0.0,1,G1
C-2223,"2,2',3,4',5-pentachlorobiphenyl",InChI=1S/C12H5Cl5/c13-6-1-2-8(10(15)4-6)9-3-7(14)5-11(16)12(9)17/h1-5H,SUOAMBOBSWRMNQ-UHFFFAOYSA-N,ClC1=CC=C(C(=C1)Cl)C2=C(Cl)C(=CC(=C2)Cl)Cl,-7.82,0.0,1,G1
C-2224,"2-sulfamoyl-4-methyl-5-mesylimido-1,3,4-thiadiazoline;  nr.29","InChI=1S/C4H8N4O4S3/c1-8-3(7-14(2,9)10)13-4(6-8)15(5,11)12/h1-2H3,(H2,5,11,12)",RNJWMMREPOUHCP-UHFFFAOYSA-N,CN1N=C(SC1=N[S](C)(=O)=O)[S](N)(=O)=O,-2.05,0.0,1,G1
C-2225,monotropitoside; monotropitin,"InChI=1S/C19H26O12/c1-27-17(26)8-4-2-3-5-10(8)30-19-16(25)14(23)13(22)11(31-19)7-29-18-15(24)12(21)9(20)6-28-18/h2-5,9,11-16,18-25H,6-7H2,1H3",VHUNCYDAXJGCLO-UHFFFAOYSA-N,COC(=O)C1=C(OC2OC(COC3OCC(O)C(O)C3O)C(O)C(O)C2O)C=CC=C1,-0.74,0.0,1,G1
C-2226,"2,3,4',5,6-pentachlorobiphenyl",InChI=1S/C12H5Cl5/c13-7-3-1-6(2-4-7)10-11(16)8(14)5-9(15)12(10)17/h1-5H,ZDDZPDTVCZLFFC-UHFFFAOYSA-N,ClC1=CC=C(C=C1)C2=C(Cl)C(=CC(=C2Cl)Cl)Cl,-7.88,0.0,1,G1
C-2227,"2,2'3,3',4-pentachlorobiphenyl",InChI=1S/C12H5Cl5/c13-8-3-1-2-6(10(8)15)7-4-5-9(14)12(17)11(7)16/h1-5H,AUGNBQPSMWGAJE-UHFFFAOYSA-N,ClC1=CC=CC(=C1Cl)C2=CC=C(Cl)C(=C2Cl)Cl,-7.05,0.08484999999999987,2,G3
C-2228,"2,3,3',5',6-pentachlorobiphenyl",InChI=1S/C12H5Cl5/c13-7-3-6(4-8(14)5-7)11-9(15)1-2-10(16)12(11)17/h1-5H,YDGFMDPEJCJZEV-UHFFFAOYSA-N,ClC1=CC(=CC(=C1)Cl)C2=C(Cl)C(=CC=C2Cl)Cl,-7.95,0.0,1,G1
C-2229,"2,2',4,5',6-pentachlorobiphenyl",InChI=1S/C12H5Cl5/c13-6-1-2-9(15)8(3-6)12-10(16)4-7(14)5-11(12)17/h1-5H,PQHZWWBJPCNNGI-UHFFFAOYSA-N,ClC1=CC=C(Cl)C(=C1)C2=C(Cl)C=C(Cl)C=C2Cl,-7.47,0.0,1,G1
C-2230,"2,2',3,3',5-pentachlorobiphenyl",InChI=1S/C12H5Cl5/c13-6-4-8(12(17)10(15)5-6)7-2-1-3-9(14)11(7)16/h1-5H,SUBRHHYLRGOTHL-UHFFFAOYSA-N,ClC1=CC(=C(Cl)C(=C1)C2=C(Cl)C(=CC=C2)Cl)Cl,-6.96,0.0,1,G1
C-2231,"2,2',3',4,6-pentachlorobiphenyl",InChI=1S/C12H5Cl5/c13-6-4-9(15)11(10(16)5-6)7-2-1-3-8(14)12(7)17/h1-5H,GOFFZTAPOOICFT-UHFFFAOYSA-N,ClC1=CC(=C(C(=C1)Cl)C2=CC=CC(=C2Cl)Cl)Cl,-7.4,0.0,1,G1
C-2232,"2,3,3',5,6-pentachlorobiphenyl",InChI=1S/C12H5Cl5/c13-7-3-1-2-6(4-7)10-11(16)8(14)5-9(15)12(10)17/h1-5H,NTKSJAPQYKCFPP-UHFFFAOYSA-N,ClC1=CC(=CC=C1)C2=C(Cl)C(=CC(=C2Cl)Cl)Cl,-7.76,0.0,1,G1
C-2233,"tetrasul;  1,2,4-trichloro-5-[(4-chlorophenyl)thio]benzene",InChI=1S/C12H6Cl4S/c13-7-1-3-8(4-2-7)17-12-6-10(15)9(14)5-11(12)16/h1-6H,QUWSDLYBOVGOCW-UHFFFAOYSA-N,ClC1=CC=C(SC2=CC(=C(Cl)C=C2Cl)Cl)C=C1,-7.03,0.0,1,G1
C-2234,"2,2',3,4,6'-pentachlorobiphenyl",InChI=1S/C12H5Cl5/c13-7-2-1-3-8(14)10(7)6-4-5-9(15)12(17)11(6)16/h1-5H,GLOOIONSKMZYQZ-UHFFFAOYSA-N,ClC1=C(Cl)C(=C(C=C1)C2=C(Cl)C=CC=C2Cl)Cl,-6.78,0.0,1,G1
C-2235,"1,3-dipropyl-8-cyclopentylxanthine","InChI=1S/C16H24N4O2/c1-3-9-19-14-12(15(21)20(10-4-2)16(19)22)17-13(18-14)11-7-5-6-8-11/h11H,3-10H2,1-2H3,(H,17,18)",FFBDFADSZUINTG-UHFFFAOYSA-N,CCCN1C(=O)N(CCC)C2=C([NH]C(=N2)C3CCCC3)C1=O,-4.96,0.0,1,G1
C-2236,"tolcapone;  3,4-dihydroxy-4'-methyl-5-nitrobenzophenone","InChI=1S/C14H11NO5/c1-8-2-4-9(5-3-8)13(17)10-6-11(15(19)20)14(18)12(16)7-10/h2-7,16,18H,1H3",MIQPIUSUKVNLNT-UHFFFAOYSA-N,CC1=CC=C(C=C1)C(=O)C2=CC(=C(O)C(=C2)O)[N+]([O-])=O,-4.17,0.0,1,G1
C-2237,"chloropropylate;  isopropyl  2-hydroxy-2,2-bis(4-chlorophenyl)acetate","InChI=1S/C17H16Cl2O3/c1-11(2)22-16(20)17(21,12-3-7-14(18)8-4-12)13-5-9-15(19)10-6-13/h3-11,21H,1-2H3",AXGUBXVWZBFQGA-UHFFFAOYSA-N,CC(C)OC(=O)C(O)(C1=CC=C(Cl)C=C1)C2=CC=C(Cl)C=C2,-5.35,0.4099999999999997,2,G3
C-2238,"sulfatroxazole;  4,5-dimethyl-3-sulfaisoxazole","InChI=1S/C11H13N3O3S/c1-7-8(2)17-13-11(7)14-18(15,16)10-5-3-9(12)4-6-10/h3-6H,12H2,1-2H3,(H,13,14)",DAUFGBIKKGOPJA-UHFFFAOYSA-N,CC1=C(C)C(=NO1)N[S](=O)(=O)C2=CC=C(N)C=C2,-2.19,0.0,1,G1
C-2239,proxicromil analog ii;  deshydroxyproxicromil,"InChI=1S/C17H18O4/c1-2-5-12-11-7-4-3-6-10(11)8-13-14(18)9-15(17(19)20)21-16(12)13/h8-9H,2-7H2,1H3,(H,19,20)",DLKZWVIRKURGIR-UHFFFAOYSA-N,CCCC1=C2CCCCC2=CC3=C1OC(=CC3=O)C(O)=O,-1.9,0.0,1,G1
C-2240,3-(hydroxymethyl)phenytoin,"InChI=1S/C16H14N2O3/c19-11-18-14(20)16(17-15(18)21,12-7-3-1-4-8-12)13-9-5-2-6-10-13/h1-10,19H,11H2,(H,17,21)",QQBKLRXLVRDKEB-UHFFFAOYSA-N,OCN1C(=O)NC(C1=O)(C2=CC=CC=C2)C3=CC=CC=C3,-3.3,0.0,1,G1
C-2241,7-(hexyloxycarbonyl)theophylline,"InChI=1S/C14H20N4O4/c1-4-5-6-7-8-22-14(21)18-9-15-11-10(18)12(19)17(3)13(20)16(11)2/h9H,4-8H2,1-3H3",UORJFFDRYWJWQH-UHFFFAOYSA-N,CCCCCCOC(=O)[N]1C=NC2=C1C(=O)N(C)C(=O)N2C,-3.0,0.0,1,G1
C-2242,"2,2',3,5,6-pentachlorobiphenyl",InChI=1S/C12H5Cl5/c13-7-4-2-1-3-6(7)10-11(16)8(14)5-9(15)12(10)17/h1-5H,BMXRLHMJGHJGLR-UHFFFAOYSA-N,ClC1=CC=CC=C1C2=C(Cl)C(=CC(=C2Cl)Cl)Cl,-7.4,0.0,1,G1
C-2243,"3,3',4,4',5-pentachlorodiphenyl  ether",InChI=1S/C12H5Cl5O/c13-8-2-1-6(3-9(8)14)18-7-4-10(15)12(17)11(16)5-7/h1-5H,WDBLKMRZRGLISL-UHFFFAOYSA-N,ClC1=CC=C(OC2=CC(=C(Cl)C(=C2)Cl)Cl)C=C1Cl,-8.25,0.0,1,G1
C-2244,norethindrone benzoate,"InChI=1S/C27H30O3/c1-3-27(30-25(29)18-7-5-4-6-8-18)16-14-24-23-11-9-19-17-20(28)10-12-21(19)22(23)13-15-26(24,27)2/h1,4-8,17,21-24H,9-16H2,2H3",XIWMRZUMWWBVKW-UHFFFAOYSA-N,CC12CCC3C(CCC4=CC(=O)CCC34)C1CCC2(OC(=O)C5=CC=CC=C5)C#C,-7.75,0.0,1,G1
C-2245,"2,3',4,4',5-pentachlorodiphenyl  ether",InChI=1S/C12H5Cl5O/c13-7-2-1-6(3-8(7)14)18-12-5-10(16)9(15)4-11(12)17/h1-5H,NRAVUGAGYOBXIG-UHFFFAOYSA-N,ClC1=CC=C(OC2=C(Cl)C=C(Cl)C(=C2)Cl)C=C1Cl,-7.83,0.0,1,G1
C-2246,methylprednisolone-21-hemisuccinate,"InChI=1S/C26H34O8/c1-14-10-16-17-7-9-26(33,20(29)13-34-22(32)5-4-21(30)31)25(17,3)12-19(28)23(16)24(2)8-6-15(27)11-18(14)24/h6,8,11,14,16-17,19,23,28,33H,4-5,7,9-10,12-13H2,1-3H3,(H,30,31)",IMBXEJJVJRTNOW-UHFFFAOYSA-N,CC1CC2C3CCC(O)(C(=O)COC(=O)CCC(O)=O)C3(C)CC(O)C2C4(C)C=CC(=O)C=C14,-4.2,0.0,1,G1
C-2247,"2',3,4,4',5-pentachlorodiphenyl  ether",InChI=1S/C12H5Cl5O/c13-6-1-2-11(8(14)3-6)18-7-4-9(15)12(17)10(16)5-7/h1-5H,BUAXMSGDEZZOJD-UHFFFAOYSA-N,ClC1=CC=C(OC2=CC(=C(Cl)C(=C2)Cl)Cl)C(=C1)Cl,-7.89,0.0,1,G1
C-2248,1-benzoylallopurinol,"InChI=1S/C12H8N4O2/c17-11-9-6-15-16(10(9)13-7-14-11)12(18)8-4-2-1-3-5-8/h1-7H,(H,13,14,17)",OEYHHMLIRPBEEB-UHFFFAOYSA-N,O=C1NC=NC2=C1C=N[N]2C(=O)C3=CC=CC=C3,-4.23,0.0,1,G1
C-2249,"2,4'-ddt","InChI=1S/C14H9Cl5/c15-10-7-5-9(6-8-10)13(14(17,18)19)11-3-1-2-4-12(11)16/h1-8,13H",CVUGPAFCQJIYDT-UHFFFAOYSA-N,ClC1=CC=C(C=C1)C(C2=C(Cl)C=CC=C2)C(Cl)(Cl)Cl,-7.13,0.2549999999999999,2,G3
C-2250,"2,3',4,5,5'-pentachlorodiphenyl  ether",InChI=1S/C12H5Cl5O/c13-6-1-7(14)3-8(2-6)18-12-5-10(16)9(15)4-11(12)17/h1-5H,XIFRTJZLSYOLIU-UHFFFAOYSA-N,ClC1=CC(=CC(=C1)Cl)OC2=C(Cl)C=C(Cl)C(=C2)Cl,-8.06,0.0,1,G1
C-2251,"2,3,3',4',5-pentachlorodiphenyl  ether",InChI=1S/C12H5Cl5O/c13-6-3-10(16)12(17)11(4-6)18-7-1-2-8(14)9(15)5-7/h1-5H,ZVFHTYGIYIXYOJ-UHFFFAOYSA-N,ClC1=CC(=C(Cl)C(=C1)Cl)OC2=CC=C(Cl)C(=C2)Cl,-7.83,0.0,1,G1
C-2252,"2,2',4,4',5-pentachlorodiphenyl  ether",InChI=1S/C12H5Cl5O/c13-6-1-2-11(9(16)3-6)18-12-5-8(15)7(14)4-10(12)17/h1-5H,AVURWLKSFZBANQ-UHFFFAOYSA-N,ClC1=CC=C(OC2=C(Cl)C=C(Cl)C(=C2)Cl)C(=C1)Cl,-7.61,0.0,1,G1
C-2253,"2,3,3',4,5'-pentachlorodiphenyl  ether",InChI=1S/C12H5Cl5O/c13-6-3-7(14)5-8(4-6)18-10-2-1-9(15)11(16)12(10)17/h1-5H,HCTKORQPUZCIAO-UHFFFAOYSA-N,ClC1=CC(=CC(=C1)Cl)OC2=C(Cl)C(=C(Cl)C=C2)Cl,-7.86,0.0,1,G1
C-2254,"2,3,4,4',5-pentachlorodiphenyl  ether",InChI=1S/C12H5Cl5O/c13-6-1-3-7(4-2-6)18-9-5-8(14)10(15)12(17)11(9)16/h1-5H,WSTVMACYLXUQIM-UHFFFAOYSA-N,ClC1=CC=C(OC2=C(Cl)C(=C(Cl)C(=C2)Cl)Cl)C=C1,-8.06,0.0,1,G1
C-2255,"2,3',4,4',6-pentachlorodiphenyl  ether",InChI=1S/C12H5Cl5O/c13-6-3-10(16)12(11(17)4-6)18-7-1-2-8(14)9(15)5-7/h1-5H,POOXVKSDWCXIBU-UHFFFAOYSA-N,ClC1=CC(=C(OC2=CC=C(Cl)C(=C2)Cl)C(=C1)Cl)Cl,-7.62,0.0,1,G1
C-2256,diclobutrazol,"InChI=1S/C15H19Cl2N3O/c1-15(2,3)14(21)13(20-9-18-8-19-20)6-10-4-5-11(16)7-12(10)17/h4-5,7-9,13-14,21H,6H2,1-3H3",URDNHJIVMYZFRT-UHFFFAOYSA-N,CC(C)(C)C(O)C(CC1=CC=C(Cl)C=C1Cl)[N]2C=NC=N2,-4.56,0.0,1,G1
C-2257,4-sulfapyrimidin-2-one,"InChI=1S/C10H10N4O3S/c11-7-1-3-8(4-2-7)18(16,17)14-9-5-6-12-10(15)13-9/h1-6H,11H2,(H2,12,13,14,15)",VCOUXVOVQPWIOT-UHFFFAOYSA-N,NC1=CC=C(C=C1)[S](=O)(=O)NC2=NC(=O)NC=C2,-3.55,0.0,1,G1
C-2258,"2,2',3,4,4'-pentachlorodiphenyl  ether",InChI=1S/C12H5Cl5O/c13-6-1-3-9(8(15)5-6)18-10-4-2-7(14)11(16)12(10)17/h1-5H,RSBUDFTVQYJNHK-UHFFFAOYSA-N,ClC1=CC=C(OC2=C(Cl)C(=C(Cl)C=C2)Cl)C(=C1)Cl,-7.44,0.0,1,G1
C-2259,"2,2',4,5,5'-pentachlorodiphenyl  ether",InChI=1S/C12H5Cl5O/c13-6-1-2-7(14)11(3-6)18-12-5-9(16)8(15)4-10(12)17/h1-5H,MKIAKZAWONVRFF-UHFFFAOYSA-N,ClC1=CC=C(Cl)C(=C1)OC2=C(Cl)C=C(Cl)C(=C2)Cl,-7.56,0.0,1,G1
C-2260,"2,2',3,4',5-pentachlorodiphenyl  ether",InChI=1S/C12H5Cl5O/c13-6-1-2-10(8(15)3-6)18-11-5-7(14)4-9(16)12(11)17/h1-5H,QPEBRZQSEUOWPA-UHFFFAOYSA-N,ClC1=CC=C(OC2=C(Cl)C(=CC(=C2)Cl)Cl)C(=C1)Cl,-7.64,0.0,1,G1
C-2261,"2,3,3',4',6-pentachlorodiphenyl  ether",InChI=1S/C12H5Cl5O/c13-7-2-1-6(5-10(7)16)18-12-9(15)4-3-8(14)11(12)17/h1-5H,KASGFDPQAMDPAZ-UHFFFAOYSA-N,ClC1=CC=C(OC2=C(Cl)C(=CC=C2Cl)Cl)C=C1Cl,-7.35,0.0,1,G1
C-2262,"2,3,4,4',6-pentachlorodiphenyl  ether",InChI=1S/C12H5Cl5O/c13-6-1-3-7(4-2-6)18-12-9(15)5-8(14)10(16)11(12)17/h1-5H,LUNNFBBTEHRYMW-UHFFFAOYSA-N,ClC1=CC=C(OC2=C(Cl)C(=C(Cl)C=C2Cl)Cl)C=C1,-7.77,0.0,1,G1
C-2263,theophyllin-7-ylmethyl octanoate;  7-(octanoyloxymethyl)theophylline,"InChI=1S/C16H24N4O4/c1-4-5-6-7-8-9-12(21)24-11-20-10-17-14-13(20)15(22)19(3)16(23)18(14)2/h10H,4-9,11H2,1-3H3",GZVOWHYYFUOPAE-UHFFFAOYSA-N,CCCCCCCC(=O)OC[N]1C=NC2=C1C(=O)N(C)C(=O)N2C,-3.45,0.0,1,G1
C-2264,"2,2',4,4',6-pentachlorodiphenyl  ether",InChI=1S/C12H5Cl5O/c13-6-1-2-11(8(15)3-6)18-12-9(16)4-7(14)5-10(12)17/h1-5H,FONWDRSQXQZNBN-UHFFFAOYSA-N,ClC1=CC=C(OC2=C(Cl)C=C(Cl)C=C2Cl)C(=C1)Cl,-7.33,0.0,1,G1
C-2265,"2,2',3',4,5-pentachlorodiphenyl  ether",InChI=1S/C12H5Cl5O/c13-6-2-1-3-10(12(6)17)18-11-5-8(15)7(14)4-9(11)16/h1-5H,ABYZYVAIOYICJQ-UHFFFAOYSA-N,ClC1=C(Cl)C(=CC=C1)OC2=C(Cl)C=C(Cl)C(=C2)Cl,-7.48,0.0,1,G1
C-2266,"2,2',3,4,5'-pentachlorodiphenyl  ether",InChI=1S/C12H5Cl5O/c13-6-1-2-7(14)10(5-6)18-9-4-3-8(15)11(16)12(9)17/h1-5H,SCLCXTQIVCULDR-UHFFFAOYSA-N,ClC1=CC=C(Cl)C(=C1)OC2=C(Cl)C(=C(Cl)C=C2)Cl,-7.7,0.0,1,G1
C-2267,"amicarbalide;  n,n'-di(3-amidinophenyl)urea","InChI=1S/C15H16N6O/c16-13(17)9-3-1-5-11(7-9)20-15(22)21-12-6-2-4-10(8-12)14(18)19/h1-8H,(H3,16,17)(H3,18,19)(H2,20,21,22)",KRUVSRGJKCHYMY-UHFFFAOYSA-N,NC(=N)C1=CC(=CC=C1)NC(=O)NC2=CC(=CC=C2)C(N)=N,-1.77,0.0,1,G1
C-2268,"2,2',3,3',4-pentachlorodiphenyl  ether",InChI=1S/C12H5Cl5O/c13-6-2-1-3-8(10(6)15)18-9-5-4-7(14)11(16)12(9)17/h1-5H,ABRDPORILGADAP-UHFFFAOYSA-N,ClC1=C(Cl)C(=CC=C1)OC2=C(Cl)C(=C(Cl)C=C2)Cl,-7.38,0.0,1,G1
C-2269,"2,3,4',5,6-pentachlorodiphenyl  ether",InChI=1S/C12H5Cl5O/c13-6-1-3-7(4-2-6)18-12-10(16)8(14)5-9(15)11(12)17/h1-5H,UETIKWAWMZLQQZ-UHFFFAOYSA-N,ClC1=CC=C(OC2=C(Cl)C(=CC(=C2Cl)Cl)Cl)C=C1,-7.76,0.0,1,G1
C-2270,tetcyclacis,"InChI=1S/C13H12ClN5/c14-6-1-3-7(4-2-6)19-13-9-5-8(12(13)17-18-19)10-11(9)16-15-10/h1-4,8-13H,5H2",DPOWHSMECVNHAT-UHFFFAOYSA-N,ClC1=CC=C(C=C1)N2N=NC3C4CC(C5N=NC45)C23,-4.87,0.0,1,G1
C-2271,"2,2',3,4',6-pentachlorodiphenyl  ether",InChI=1S/C12H5Cl5O/c13-6-1-4-10(9(16)5-6)18-12-8(15)3-2-7(14)11(12)17/h1-5H,BRNKJDZWZYZVNM-UHFFFAOYSA-N,ClC1=CC=C(OC2=C(Cl)C(=CC=C2Cl)Cl)C(=C1)Cl,-7.24,0.0,1,G1
C-2272,"2,2',4,5,6'-pentachlorodiphenyl  ether",InChI=1S/C12H5Cl5O/c13-6-2-1-3-7(14)12(6)18-11-5-9(16)8(15)4-10(11)17/h1-5H,BOJBTUWEQMUWHT-UHFFFAOYSA-N,ClC1=CC=CC(=C1OC2=C(Cl)C=C(Cl)C(=C2)Cl)Cl,-7.12,0.0,1,G1
C-2273,"2,2',3,4,6'-pentachlorodiphenyl  ether",InChI=1S/C12H5Cl5O/c13-6-4-5-9(11(17)10(6)16)18-12-7(14)2-1-3-8(12)15/h1-5H,JGXAONSRHOSPTJ-UHFFFAOYSA-N,ClC1=C(Cl)C(=C(OC2=C(Cl)C=CC=C2Cl)C=C1)Cl,-7.23,0.0,1,G1
C-2274,naproxen 2-(2-aminoacetoxy)ethyl ester,"InChI=1S/C18H21NO5/c1-12(18(21)24-8-7-23-17(20)11-19)13-3-4-15-10-16(22-2)6-5-14(15)9-13/h3-6,9-10,12H,7-8,11,19H2,1-2H3",SZSNDQZFLGGEBX-UHFFFAOYSA-N,COC1=CC=C2C=C(C=CC2=C1)C(C)C(=O)OCCOC(=O)CN,-1.98,0.0,1,G1
C-2275,"2-sulfamoyl-5-(n,n-dimethylsulfamoylamido)-1,3,4-thiadiazole","InChI=1S/C4H9N5O4S3/c1-9(2)16(12,13)8-3-6-7-4(14-3)15(5,10)11/h1-2H3,(H,6,8)(H2,5,10,11)",OXCKOUMFAKPIEL-UHFFFAOYSA-N,CN(C)[S](=O)(=O)NC1=NN=C(S1)[S](N)(=O)=O,-2.68,0.0,1,G1
C-2276,"2,3,4,5,6-pentachlorodiphenyl  ether",InChI=1S/C12H5Cl5O/c13-7-8(14)10(16)12(11(17)9(7)15)18-6-4-2-1-3-5-6/h1-5H,JDWOFUWJURZFFF-UHFFFAOYSA-N,ClC1=C(Cl)C(=C(OC2=CC=CC=C2)C(=C1Cl)Cl)Cl,-7.94,0.0,1,G1
C-2277,"s6,9-bis(propanoyloxymethyl)-6-mercaptopurine","InChI=1S/C13H16N4O4S/c1-3-9(18)20-7-17-6-16-11-12(17)14-5-15-13(11)22-8-21-10(19)4-2/h5-6H,3-4,7-8H2,1-2H3",CTMFEUPSVOSORU-UHFFFAOYSA-N,CCC(=O)OCSC1=NC=NC2=C1N=C[N]2COC(=O)CC,-2.78,0.0,1,G1
C-2278,sulfamethylthiazole;  4-methyl-2-sulfanilamidothiazole,"InChI=1S/C10H11N3O2S2/c1-7-6-16-10(12-7)13-17(14,15)9-4-2-8(11)3-5-9/h2-6H,11H2,1H3,(H,12,13)",KJVQYDYPDFFJMP-UHFFFAOYSA-N,CC1=CSC(=N1)N[S](=O)(=O)C2=CC=C(N)C=C2,-3.49,0.6805000000000001,2,G2
C-2279,"diclofop;  (rs)-2-[4-(2,4-dichlorophenoxy)phenoxy]propanoic acid","InChI=1S/C15H12Cl2O4/c1-9(15(18)19)20-11-3-5-12(6-4-11)21-14-7-2-10(16)8-13(14)17/h2-9H,1H3,(H,18,19)",OOLBCHYXZDXLDS-UHFFFAOYSA-N,CC(OC1=CC=C(OC2=C(Cl)C=C(Cl)C=C2)C=C1)C(O)=O,-5.04,0.0,1,G1
C-2280,2-phenylquinoline-4-carboxylic acid;  2-phenyl-4-carboxy-quinoline;  2-phenylcinchoninic  acid,"InChI=1S/C16H11NO2/c18-16(19)13-10-15(11-6-2-1-3-7-11)17-14-9-5-4-8-12(13)14/h1-10H,(H,18,19)",YTRMTPPVNRALON-UHFFFAOYSA-N,OC(=O)C1=CC(=NC2=C1C=CC=C2)C3=CC=CC=C3,-3.19,0.0,1,G1
C-2281,pyrimidifen,"InChI=1S/C20H28ClN3O2/c1-5-17-19(21)20(24-13-23-17)22-10-12-26-18-8-7-16(9-11-25-6-2)14(3)15(18)4/h7-8,13H,5-6,9-12H2,1-4H3,(H,22,23,24)",ITKAIUGKVKDENI-UHFFFAOYSA-N,CCOCCC1=C(C)C(=C(OCCNC2=NC=NC(=C2Cl)CC)C=C1)C,-5.24,0.0,1,G1
C-2284,"n-(1,1,2,2-tetrachloro-2-fluoroethylthio)methanesulfonanilide","InChI=1S/C9H8Cl4FNO2S2/c1-19(16,17)15(7-5-3-2-4-6-7)18-9(12,13)8(10,11)14/h2-6H,1H3",SVIKNKPDPGCMAE-UHFFFAOYSA-N,C[S](=O)(=O)N(SC(Cl)(Cl)C(F)(Cl)Cl)C1=CC=CC=C1,-5.15,0.0,1,G1
C-2285,naproxen 1-(2-aminoacetoxy)ethyl ester,"InChI=1S/C18H21NO5/c1-11(18(21)24-12(2)23-17(20)10-19)13-4-5-15-9-16(22-3)7-6-14(15)8-13/h4-9,11-12H,10,19H2,1-3H3",WVZTUUIUEUVJGM-UHFFFAOYSA-N,COC1=CC=C2C=C(C=CC2=C1)C(C)C(=O)OC(C)OC(=O)CN,-2.44,0.0,1,G1
C-2286,"danthron;  1,8-dihydroxyanthraquinone","InChI=1S/C14H8O4/c15-9-5-1-3-7-11(9)14(18)12-8(13(7)17)4-2-6-10(12)16/h1-6,15-16H",QBPFLULOKWLNNW-UHFFFAOYSA-N,OC1=CC=CC2=C1C(=O)C3=C(C=CC=C3O)C2=O,-5.19,0.0,1,G1
C-2287,1-methyl-4-sulfapyrimidin-2-one,"InChI=1S/C11H12N4O3S/c1-15-7-6-10(13-11(15)16)14-19(17,18)9-4-2-8(12)3-5-9/h2-7H,12H2,1H3,(H,13,14,16)",QOPHKHWJLOYIDO-UHFFFAOYSA-N,CN1C=CC(=NC1=O)N[S](=O)(=O)C2=CC=C(N)C=C2,-2.36,0.0,1,G1
C-2288,triflumizole,"InChI=1S/C15H15ClF3N3O/c1-2-7-23-9-14(22-6-5-20-10-22)21-13-4-3-11(16)8-12(13)15(17,18)19/h3-6,8,10H,2,7,9H2,1H3",HSMVPDGQOIQYSR-UHFFFAOYSA-N,CCCOCC(=NC1=CC=C(Cl)C=C1C(F)(F)F)[N]2C=CN=C2,-1.44,0.0,1,G1
C-2289,"sulcotrione;   2-[2-chloro-4-(methylsulfonyl)benzoyl]-1,3-cyclohexanedione","InChI=1S/C14H13ClO5S/c1-21(19,20)8-5-6-9(10(15)7-8)14(18)13-11(16)3-2-4-12(13)17/h5-7,13H,2-4H2,1H3",PQTBTIFWAXVEPB-UHFFFAOYSA-N,C[S](=O)(=O)C1=CC(=C(C=C1)C(=O)C2C(=O)CCCC2=O)Cl,-3.3,0.0,1,G1
C-2290,acetic acid 4-(4-acetylaminobenzoylamino)phenyl ester,"InChI=1S/C17H16N2O4/c1-11(20)18-14-5-3-13(4-6-14)17(22)19-15-7-9-16(10-8-15)23-12(2)21/h3-10H,1-2H3,(H,18,20)(H,19,22)",MGJXRNWWFDAVMQ-UHFFFAOYSA-N,CC(=O)NC1=CC=C(C=C1)C(=O)NC2=CC=C(OC(C)=O)C=C2,-4.41,0.0,1,G1
C-2291,8-phenyltheophylline,"InChI=1S/C13H12N4O2/c1-16-11-9(12(18)17(2)13(16)19)14-10(15-11)8-6-4-3-5-7-8/h3-7H,1-2H3,(H,14,15)",PJFMAVHETLRJHJ-UHFFFAOYSA-N,CN1C(=O)N(C)C2=C([NH]C(=N2)C3=CC=CC=C3)C1=O,-5.0,0.0,1,G1
C-2292,"1,3-dipropyl-8-dicyclopropylmethylxanthine","InChI=1S/C18H26N4O2/c1-3-9-21-16-14(17(23)22(10-4-2)18(21)24)19-15(20-16)13(11-5-6-11)12-7-8-12/h11-13H,3-10H2,1-2H3,(H,19,20)",OEPXIQLEKWHAGE-UHFFFAOYSA-N,CCCN1C(=O)N(CCC)C2=C([NH]C(=N2)C(C3CC3)C4CC4)C1=O,-4.59,0.0,1,G1
C-2293,proxicromil,"InChI=1S/C17H18O5/c1-2-5-11-9-6-3-4-7-10(9)15(19)14-12(18)8-13(17(20)21)22-16(11)14/h8,19H,2-7H2,1H3,(H,20,21)",VFFTVZUIDYJUQS-UHFFFAOYSA-N,CCCC1=C2OC(=CC(=O)C2=C(O)C3=C1CCCC3)C(O)=O,-2.68,0.0,1,G1
C-2294,ampicillin,"InChI=1S/C16H19N3O4S/c1-16(2)11(15(22)23)19-13(21)10(14(19)24-16)18-12(20)9(17)8-6-4-3-5-7-8/h3-7,9-11,14H,17H2,1-2H3,(H,18,20)(H,22,23)",AVKUERGKIZMTKX-UHFFFAOYSA-N,CC1(C)SC2C(NC(=O)C(N)C3=CC=CC=C3)C(=O)N2C1C(O)=O,-1.99,0.0,1,G1
C-2295,dexclamol,"InChI=1S/C24H29NO/c1-16(2)24(26)12-13-25-15-21-19-8-4-3-6-17(19)10-11-18-7-5-9-20(23(18)21)22(25)14-24/h3-9,16,21-22,26H,10-15H2,1-2H3",UPMOVJBGNREKJV-UHFFFAOYSA-N,CC(C)C1(O)CCN2CC3C4=C(CCC5=C3C(=CC=C5)C2C1)C=CC=C4,-3.81,0.0,1,G1
C-2296,pimaricin;  natamycin,"InChI=1S/C33H47NO13/c1-18-10-8-6-4-3-5-7-9-11-21(45-32-30(39)28(34)29(38)19(2)44-32)15-25-27(31(40)41)22(36)17-33(42,47-25)16-20(35)14-24-23(46-24)12-13-26(37)43-18/h3-9,11-13,18-25,27-30,32,35-36,38-39,42H,10,14-17,34H2,1-2H3,(H,40,41)/b4-3+,7-5+,8-6+,11-9+,13-12+",NCXMLFZGDNKEPB-YLTFDBFKSA-N,CC1C\C=C\C=C\C=C\C=C\C(CC2OC(O)(CC(O)CC3OC3/C=C/C(=O)O1)CC(O)C2C([O-])=O)OC4OC(C)C(O)C([NH3+])C4O,-2.21,0.0,1,G1
C-2298,"s6,9-bis(butanoyloxymethyl)-6-mercaptopurine; 9-(butanoyloxymethyl)-6-(butanoyloxymethylthio)purine","InChI=1S/C15H20N4O4S/c1-3-5-11(20)22-9-19-8-18-13-14(19)16-7-17-15(13)24-10-23-12(21)6-4-2/h7-8H,3-6,9-10H2,1-2H3",SFXAJOVEEUKUPY-UHFFFAOYSA-N,CCCC(=O)OCSC1=NC=NC2=C1N=C[N]2COC(=O)CCC,-3.71,0.0,1,G1
C-2299,cephalexin,"InChI=1S/C16H17N3O4S/c1-8-7-24-15-11(14(21)19(15)12(8)16(22)23)18-13(20)10(17)9-5-3-2-4-6-9/h2-6,10-11,15H,7,17H2,1H3,(H,18,20)(H,22,23)",ZAIPMKNFIOOWCQ-UHFFFAOYSA-N,CC1=C(N2C(SC1)C(NC(=O)C(N)C3=CC=CC=C3)C2=O)C(O)=O,-1.58,0.0,1,G1
C-2300,n4-acetylsulfadiazine,"InChI=1S/C12H12N4O3S/c1-9(17)15-10-3-5-11(6-4-10)20(18,19)16-12-13-7-2-8-14-12/h2-8H,1H3,(H,15,17)(H,13,14,16)",NJIZUWGMNCUKGU-UHFFFAOYSA-N,CC(=O)NC1=CC=C(C=C1)[S](=O)(=O)NC2=NC=CC=N2,-3.59,0.0,1,G1
C-2302,"1,3-dipropyl-8-(3-oxocyclopentyl)xanthine","InChI=1S/C16H22N4O3/c1-3-7-19-14-12(15(22)20(8-4-2)16(19)23)17-13(18-14)10-5-6-11(21)9-10/h10H,3-9H2,1-2H3,(H,17,18)",RUHGOZFOVBMWOO-UHFFFAOYSA-N,CCCN1C(=O)N(CCC)C2=C([NH]C(=N2)C3CCC(=O)C3)C1=O,-3.16,0.0,1,G1
C-2303,"2,3,3',4,4',5'-hexachlorodiphenyl  ether",InChI=1S/C12H4Cl6O/c13-6-1-2-9(12(18)11(6)17)19-5-3-7(14)10(16)8(15)4-5/h1-4H,FEIDIWDEJQVIPO-UHFFFAOYSA-N,ClC1=C(Cl)C(=C(OC2=CC(=C(Cl)C(=C2)Cl)Cl)C=C1)Cl,-8.49,0.0,1,G1
C-2304,imazaquine,"InChI=1S/C17H17N3O3/c1-9(2)17(3)16(23)19-14(20-17)13-11(15(21)22)8-10-6-4-5-7-12(10)18-13/h4-9H,1-3H3,(H,21,22)(H,19,20,23)",CABMTIJINOIHOD-UHFFFAOYSA-N,CC(C)C1(C)N=C(NC1=O)C2=NC3=C(C=CC=C3)C=C2C(O)=O,-3.72,0.09050000000000025,2,G3
C-2305,1-acetoxymethyl-3-benzoyl-5-fluorouracil,"InChI=1S/C14H11FN2O5/c1-9(18)22-8-16-7-11(15)13(20)17(14(16)21)12(19)10-5-3-2-4-6-10/h2-7H,8H2,1H3",PUXWCWJFSQGEGX-UHFFFAOYSA-N,CC(=O)OCN1C=C(F)C(=O)N(C1=O)C(=O)C2=CC=CC=C2,-3.34,0.0,1,G1
C-2306,o-[(4-morpholinomethyl)benzoyl]metronidazole,"InChI=1S/C18H22N4O5/c1-14-19-12-17(22(24)25)21(14)8-11-27-18(23)16-4-2-15(3-5-16)13-20-6-9-26-10-7-20/h2-5,12H,6-11,13H2,1H3",QFLZEYUXHIFILY-UHFFFAOYSA-N,CC1=NC=C([N]1CCOC(=O)C2=CC=C(CN3CCOCC3)C=C2)[N+]([O-])=O,-2.89,0.0,1,G1
C-2307,"n1-(3,4-dichlorophenyl)sulfanilamide;  3,4-dichloro-1-sulfabenzene","InChI=1S/C12H10Cl2N2O2S/c13-11-6-3-9(7-12(11)14)16-19(17,18)10-4-1-8(15)2-5-10/h1-7,16H,15H2",CDCMAMVXGZBIAX-UHFFFAOYSA-N,NC1=CC=C(C=C1)[S](=O)(=O)NC2=CC=C(Cl)C(=C2)Cl,-4.94,0.0,1,G1
C-2308,5-amino-2-methoxy-sulfabenzene,"InChI=1S/C13H15N3O3S/c1-19-13-7-4-10(15)8-12(13)16-20(17,18)11-5-2-9(14)3-6-11/h2-8,16H,14-15H2,1H3",XNBPWMJDOGVRNA-UHFFFAOYSA-N,COC1=C(N[S](=O)(=O)C2=CC=C(N)C=C2)C=C(N)C=C1,-5.08,0.0,1,G1
C-2309,enoxacin,"InChI=1S/C15H17FN4O3/c1-2-19-8-10(15(22)23)12(21)9-7-11(16)14(18-13(9)19)20-5-3-17-4-6-20/h7-8,17H,2-6H2,1H3,(H,22,23)",IDYZIJYBMGIQMJ-UHFFFAOYSA-N,CCN1C=C(C(O)=O)C(=O)C2=C1N=C(N3CCNCC3)C(=C2)F,-2.92,0.0,1,G1